********************************************************************************
*                       GENERAL UTILITY LATTICE PROGRAM                        *
*                                 Julian Gale                                  *
*                      Nanochemistry Research Institute                        *
*                           Department of Chemistry                            *
*                    Curtin University, Western Australia                      *
********************************************************************************
* Version = 4.4.2 * Last modified = 20th June 2016                             *
********************************************************************************
*  optimise     - perform optimisation run                                     *
*  conp         - constant pressure calculation                                *
********************************************************************************
*  LATP                                                                        *
********************************************************************************


  Job Started  at 12:01.21 17th October    2016                               

  Number of CPUs =     1


  Total number of configurations input =   1

********************************************************************************
*  Input for Configuration =   1                                               *
********************************************************************************

  Formula = P18O72Li7Ti11Al                                             

  Number of irreducible atoms/shells =     181


  Total number atoms/shells =     181

  Dimensionality = 3               :  Bulk   



  Cartesian lattice vectors (Angstroms) :

        8.510500    0.000000    0.000000
       -4.255250    7.370309    0.000000
        0.000000    0.000000   20.827500

  Cell parameters (Angstroms/Degrees):

  a =       8.5105    alpha =  90.0000
  b =       8.5105    beta  =  90.0000
  c =      20.8275    gamma = 120.0000

  Initial cell volume =        1306.405280 Angs**3

  Temperature of configuration =  0.000     K 

  Pressure of configuration =         0.000 GPa 

  Fractional coordinates of asymmetric unit :

--------------------------------------------------------------------------------
   No.  Atomic       x           y          z         Charge      Occupancy
        Label      (Frac)      (Frac)     (Frac)        (e)         (Frac)  
--------------------------------------------------------------------------------
      1 P     c    0.290500    0.000000    0.250000     5.00000    1.000000    
      2 P     c    0.709500 *  0.709500 *  0.250000 *   5.00000    1.000000    
      3 P     c    0.000000 *  0.290500 *  0.250000 *   5.00000    1.000000    
      4 P     c    0.290500 *  0.290500 *  0.750000 *   5.00000    1.000000    
      5 P     c    0.000000 *  0.709500 *  0.750000 *   5.00000    1.000000    
      6 P     c    0.709500 *  0.000000 *  0.750000 *   5.00000    1.000000    
      7 P     c    0.957167 *  0.333333 *  0.583333 *   5.00000    1.000000    
      8 P     c    0.376167 *  0.042833 *  0.583333 *   5.00000    1.000000    
      9 P     c    0.666667 *  0.623833 *  0.583333 *   5.00000    1.000000    
     10 P     c    0.957167 *  0.623833 *  0.083333 *   5.00000    1.000000    
     11 P     c    0.666667 *  0.042833 *  0.083333 *   5.00000    1.000000    
     12 P     c    0.376167 *  0.333333 *  0.083333 *   5.00000    1.000000    
     13 P     c    0.623833 *  0.666667 *  0.916667 *   5.00000    1.000000    
     14 P     c    0.042833 *  0.376167 *  0.916667 *   5.00000    1.000000    
     15 P     c    0.333333 *  0.957167 *  0.916667 *   5.00000    1.000000    
     16 P     c    0.623833 *  0.957167 *  0.416667 *   5.00000    1.000000    
     17 P     c    0.333333 *  0.376167 *  0.416667 *   5.00000    1.000000    
     18 P     c    0.042833 *  0.666667 *  0.416667 *   5.00000    1.000000    
     19 O     c    0.189700 *  0.005200 *  0.310070 *   0.86000    1.000000    
     20 O     c    0.815500 *  0.810300 *  0.310070 *   0.86000    1.000000    
     21 O     c    0.994800 *  0.184500 *  0.310070 *   0.86000    1.000000    
     22 O     c    0.189700 *  0.184500 *  0.810070 *   0.86000    1.000000    
     23 O     c    0.994800 *  0.810300 *  0.810070 *   0.86000    1.000000    
     24 O     c    0.815500 *  0.005200 *  0.810070 *   0.86000    1.000000    
     25 O     c    0.810300 *  0.994800 *  0.689930 *   0.86000    1.000000    
     26 O     c    0.184500 *  0.189700 *  0.689930 *   0.86000    1.000000    
     27 O     c    0.005200 *  0.815500 *  0.689930 *   0.86000    1.000000    
     28 O     c    0.810300 *  0.815500 *  0.189930 *   0.86000    1.000000    
     29 O     c    0.005200 *  0.189700 *  0.189930 *   0.86000    1.000000    
     30 O     c    0.184500 *  0.994800 *  0.189930 *   0.86000    1.000000    
     31 O     c    0.856367 *  0.338533 *  0.643403 *   0.86000    1.000000    
     32 O     c    0.482167 *  0.143633 *  0.643403 *   0.86000    1.000000    
     33 O     c    0.661467 *  0.517833 *  0.643403 *   0.86000    1.000000    
     34 O     c    0.856367 *  0.517833 *  0.143403 *   0.86000    1.000000    
     35 O     c    0.661467 *  0.143633 *  0.143403 *   0.86000    1.000000    
     36 O     c    0.482167 *  0.338533 *  0.143403 *   0.86000    1.000000    
     37 O     c    0.476967 *  0.328133 *  0.023263 *   0.86000    1.000000    
     38 O     c    0.851167 *  0.523033 *  0.023263 *   0.86000    1.000000    
     39 O     c    0.671867 *  0.148833 *  0.023263 *   0.86000    1.000000    
     40 O     c    0.476967 *  0.148833 *  0.523263 *   0.86000    1.000000    
     41 O     c    0.671867 *  0.523033 *  0.523263 *   0.86000    1.000000    
     42 O     c    0.851167 *  0.328133 *  0.523263 *   0.86000    1.000000    
     43 O     c    0.523033 *  0.671867 *  0.976737 *   0.86000    1.000000    
     44 O     c    0.148833 *  0.476967 *  0.976737 *   0.86000    1.000000    
     45 O     c    0.328133 *  0.851167 *  0.976737 *   0.86000    1.000000    
     46 O     c    0.523033 *  0.851167 *  0.476737 *   0.86000    1.000000    
     47 O     c    0.328133 *  0.476967 *  0.476737 *   0.86000    1.000000    
     48 O     c    0.148833 *  0.671867 *  0.476737 *   0.86000    1.000000    
     49 O     c    0.143633 *  0.661467 *  0.356597 *   0.86000    1.000000    
     50 O     c    0.517833 *  0.856367 *  0.356597 *   0.86000    1.000000    
     51 O     c    0.338533 *  0.482167 *  0.356597 *   0.86000    1.000000    
     52 O     c    0.143633 *  0.482167 *  0.856597 *   0.86000    1.000000    
     53 O     c    0.338533 *  0.856367 *  0.856597 *   0.86000    1.000000    
     54 O     c    0.517833 *  0.661467 *  0.856597 *   0.86000    1.000000    
     55 O     c    0.024100 *  0.835700 *  0.418810 *   0.86000    1.000000    
     56 O     c    0.811600 *  0.975900 *  0.418810 *   0.86000    1.000000    
     57 O     c    0.164300 *  0.188400 *  0.418810 *   0.86000    1.000000    
     58 O     c    0.024100 *  0.188400 *  0.918810 *   0.86000    1.000000    
     59 O     c    0.164300 *  0.975900 *  0.918810 *   0.86000    1.000000    
     60 O     c    0.811600 *  0.835700 *  0.918810 *   0.86000    1.000000    
     61 O     c    0.975900 *  0.164300 *  0.581190 *   0.86000    1.000000    
     62 O     c    0.188400 *  0.024100 *  0.581190 *   0.86000    1.000000    
     63 O     c    0.835700 *  0.811600 *  0.581190 *   0.86000    1.000000    
     64 O     c    0.975900 *  0.811600 *  0.081190 *   0.86000    1.000000    
     65 O     c    0.835700 *  0.024100 *  0.081190 *   0.86000    1.000000    
     66 O     c    0.188400 *  0.164300 *  0.081190 *   0.86000    1.000000    
     67 O     c    0.690767 *  0.169033 *  0.752143 *   0.86000    1.000000    
     68 O     c    0.478267 *  0.309233 *  0.752143 *   0.86000    1.000000    
     69 O     c    0.830967 *  0.521733 *  0.752143 *   0.86000    1.000000    
     70 O     c    0.690767 *  0.521733 *  0.252143 *   0.86000    1.000000    
     71 O     c    0.830967 *  0.309233 *  0.252143 *   0.86000    1.000000    
     72 O     c    0.478267 *  0.169033 *  0.252143 *   0.86000    1.000000    
     73 O     c    0.642567 *  0.497633 *  0.914523 *   0.86000    1.000000    
     74 O     c    0.855067 *  0.357433 *  0.914523 *   0.86000    1.000000    
     75 O     c    0.502367 *  0.144933 *  0.914523 *   0.86000    1.000000    
     76 O     c    0.642567 *  0.144933 *  0.414523 *   0.86000    1.000000    
     77 O     c    0.502367 *  0.357433 *  0.414523 *   0.86000    1.000000    
     78 O     c    0.855067 *  0.497633 *  0.414523 *   0.86000    1.000000    
     79 O     c    0.357433 *  0.502367 *  0.085477 *   0.86000    1.000000    
     80 O     c    0.144933 *  0.642567 *  0.085477 *   0.86000    1.000000    
     81 O     c    0.497633 *  0.855067 *  0.085477 *   0.86000    1.000000    
     82 O     c    0.357433 *  0.855067 *  0.585477 *   0.86000    1.000000    
     83 O     c    0.497633 *  0.642567 *  0.585477 *   0.86000    1.000000    
     84 O     c    0.144933 *  0.502367 *  0.585477 *   0.86000    1.000000    
     85 O     c    0.309233 *  0.830967 *  0.247857 *   0.86000    1.000000    
     86 O     c    0.521733 *  0.690767 *  0.247857 *   0.86000    1.000000    
     87 O     c    0.169033 *  0.478267 *  0.247857 *   0.86000    1.000000    
     88 O     c    0.309233 *  0.478267 *  0.747857 *   0.86000    1.000000    
     89 O     c    0.169033 *  0.690767 *  0.747857 *   0.86000    1.000000    
     90 O     c    0.521733 *  0.830967 *  0.747857 *   0.86000    1.000000    
     91 Li    c    0.000000 *  0.000000 *  0.500000 *   1.00000    1.000000    
     92 Li    c    0.000000 *  0.000000 *  0.000000 *   1.00000    1.000000    
     93 Li    c    0.666667 *  0.333333 *  0.833333 *   1.00000    1.000000    
     94 Li    c    0.666667 *  0.333333 *  0.333333 *   1.00000    1.000000    
     95 Li    c    0.333333 *  0.666667 *  0.166667 *   1.00000    1.000000    
     96 Li    c    0.333333 *  0.666667 *  0.666667 *   1.00000    1.000000    
     97 Ti    c    0.000000 *  0.000000 *  0.858300 *   4.00000    1.000000    
     98 Ti    c    0.000000 *  0.000000 *  0.641700 *   4.00000    1.000000    
     99 Ti    c    0.000000 *  0.000000 *  0.141700 *   4.00000    1.000000    
    100 Ti    c    0.666667 *  0.333333 *  0.691633 *   4.00000    1.000000    
    101 Ti    c    0.666667 *  0.333333 *  0.191633 *   4.00000    1.000000    
    102 Ti    c    0.666667 *  0.333333 *  0.975033 *   4.00000    1.000000    
    103 Ti    c    0.666667 *  0.333333 *  0.475033 *   4.00000    1.000000    
    104 Ti    c    0.333333 *  0.666667 *  0.024967 *   4.00000    1.000000    
    105 Ti    c    0.333333 *  0.666667 *  0.524967 *   4.00000    1.000000    
    106 Ti    c    0.333333 *  0.666667 *  0.308367 *   4.00000    1.000000    
    107 Ti    c    0.333333 *  0.666667 *  0.808367 *   4.00000    1.000000    
    108 Al    c    0.000000 *  0.000000 *  0.358300 *   3.00000    1.000000    
    109 Li    c    0.333333 *  0.666667 *  0.416667 *   1.00000    1.000000    
    110 O     s    0.189700 *  0.005200 *  0.310070 *  -2.86000    1.000000    
    111 O     s    0.815500 *  0.810300 *  0.310070 *  -2.86000    1.000000    
    112 O     s    0.994800 *  0.184500 *  0.310070 *  -2.86000    1.000000    
    113 O     s    0.189700 *  0.184500 *  0.810070 *  -2.86000    1.000000    
    114 O     s    0.994800 *  0.810300 *  0.810070 *  -2.86000    1.000000    
    115 O     s    0.815500 *  0.005200 *  0.810070 *  -2.86000    1.000000    
    116 O     s    0.810300 *  0.994800 *  0.689930 *  -2.86000    1.000000    
    117 O     s    0.184500 *  0.189700 *  0.689930 *  -2.86000    1.000000    
    118 O     s    0.005200 *  0.815500 *  0.689930 *  -2.86000    1.000000    
    119 O     s    0.810300 *  0.815500 *  0.189930 *  -2.86000    1.000000    
    120 O     s    0.005200 *  0.189700 *  0.189930 *  -2.86000    1.000000    
    121 O     s    0.184500 *  0.994800 *  0.189930 *  -2.86000    1.000000    
    122 O     s    0.856367 *  0.338533 *  0.643403 *  -2.86000    1.000000    
    123 O     s    0.482167 *  0.143633 *  0.643403 *  -2.86000    1.000000    
    124 O     s    0.661467 *  0.517833 *  0.643403 *  -2.86000    1.000000    
    125 O     s    0.856367 *  0.517833 *  0.143403 *  -2.86000    1.000000    
    126 O     s    0.661467 *  0.143633 *  0.143403 *  -2.86000    1.000000    
    127 O     s    0.482167 *  0.338533 *  0.143403 *  -2.86000    1.000000    
    128 O     s    0.476967 *  0.328133 *  0.023263 *  -2.86000    1.000000    
    129 O     s    0.851167 *  0.523033 *  0.023263 *  -2.86000    1.000000    
    130 O     s    0.671867 *  0.148833 *  0.023263 *  -2.86000    1.000000    
    131 O     s    0.476967 *  0.148833 *  0.523263 *  -2.86000    1.000000    
    132 O     s    0.671867 *  0.523033 *  0.523263 *  -2.86000    1.000000    
    133 O     s    0.851167 *  0.328133 *  0.523263 *  -2.86000    1.000000    
    134 O     s    0.523033 *  0.671867 *  0.976737 *  -2.86000    1.000000    
    135 O     s    0.148833 *  0.476967 *  0.976737 *  -2.86000    1.000000    
    136 O     s    0.328133 *  0.851167 *  0.976737 *  -2.86000    1.000000    
    137 O     s    0.523033 *  0.851167 *  0.476737 *  -2.86000    1.000000    
    138 O     s    0.328133 *  0.476967 *  0.476737 *  -2.86000    1.000000    
    139 O     s    0.148833 *  0.671867 *  0.476737 *  -2.86000    1.000000    
    140 O     s    0.143633 *  0.661467 *  0.356597 *  -2.86000    1.000000    
    141 O     s    0.517833 *  0.856367 *  0.356597 *  -2.86000    1.000000    
    142 O     s    0.338533 *  0.482167 *  0.356597 *  -2.86000    1.000000    
    143 O     s    0.143633 *  0.482167 *  0.856597 *  -2.86000    1.000000    
    144 O     s    0.338533 *  0.856367 *  0.856597 *  -2.86000    1.000000    
    145 O     s    0.517833 *  0.661467 *  0.856597 *  -2.86000    1.000000    
    146 O     s    0.024100 *  0.835700 *  0.418810 *  -2.86000    1.000000    
    147 O     s    0.811600 *  0.975900 *  0.418810 *  -2.86000    1.000000    
    148 O     s    0.164300 *  0.188400 *  0.418810 *  -2.86000    1.000000    
    149 O     s    0.024100 *  0.188400 *  0.918810 *  -2.86000    1.000000    
    150 O     s    0.164300 *  0.975900 *  0.918810 *  -2.86000    1.000000    
    151 O     s    0.811600 *  0.835700 *  0.918810 *  -2.86000    1.000000    
    152 O     s    0.975900 *  0.164300 *  0.581190 *  -2.86000    1.000000    
    153 O     s    0.188400 *  0.024100 *  0.581190 *  -2.86000    1.000000    
    154 O     s    0.835700 *  0.811600 *  0.581190 *  -2.86000    1.000000    
    155 O     s    0.975900 *  0.811600 *  0.081190 *  -2.86000    1.000000    
    156 O     s    0.835700 *  0.024100 *  0.081190 *  -2.86000    1.000000    
    157 O     s    0.188400 *  0.164300 *  0.081190 *  -2.86000    1.000000    
    158 O     s    0.690767 *  0.169033 *  0.752143 *  -2.86000    1.000000    
    159 O     s    0.478267 *  0.309233 *  0.752143 *  -2.86000    1.000000    
    160 O     s    0.830967 *  0.521733 *  0.752143 *  -2.86000    1.000000    
    161 O     s    0.690767 *  0.521733 *  0.252143 *  -2.86000    1.000000    
    162 O     s    0.830967 *  0.309233 *  0.252143 *  -2.86000    1.000000    
    163 O     s    0.478267 *  0.169033 *  0.252143 *  -2.86000    1.000000    
    164 O     s    0.642567 *  0.497633 *  0.914523 *  -2.86000    1.000000    
    165 O     s    0.855067 *  0.357433 *  0.914523 *  -2.86000    1.000000    
    166 O     s    0.502367 *  0.144933 *  0.914523 *  -2.86000    1.000000    
    167 O     s    0.642567 *  0.144933 *  0.414523 *  -2.86000    1.000000    
    168 O     s    0.502367 *  0.357433 *  0.414523 *  -2.86000    1.000000    
    169 O     s    0.855067 *  0.497633 *  0.414523 *  -2.86000    1.000000    
    170 O     s    0.357433 *  0.502367 *  0.085477 *  -2.86000    1.000000    
    171 O     s    0.144933 *  0.642567 *  0.085477 *  -2.86000    1.000000    
    172 O     s    0.497633 *  0.855067 *  0.085477 *  -2.86000    1.000000    
    173 O     s    0.357433 *  0.855067 *  0.585477 *  -2.86000    1.000000    
    174 O     s    0.497633 *  0.642567 *  0.585477 *  -2.86000    1.000000    
    175 O     s    0.144933 *  0.502367 *  0.585477 *  -2.86000    1.000000    
    176 O     s    0.309233 *  0.830967 *  0.247857 *  -2.86000    1.000000    
    177 O     s    0.521733 *  0.690767 *  0.247857 *  -2.86000    1.000000    
    178 O     s    0.169033 *  0.478267 *  0.247857 *  -2.86000    1.000000    
    179 O     s    0.309233 *  0.478267 *  0.747857 *  -2.86000    1.000000    
    180 O     s    0.169033 *  0.690767 *  0.747857 *  -2.86000    1.000000    
    181 O     s    0.521733 *  0.830967 *  0.747857 *  -2.86000    1.000000    
--------------------------------------------------------------------------------



********************************************************************************
*  General input information                                                   *
********************************************************************************

  Species output for all configurations : 

--------------------------------------------------------------------------------
  Species    Type    Atomic    Atomic    Charge       Radii (Angs)     Library
                     Number     Mass       (e)     Cova   Ionic  VDW   Symbol
--------------------------------------------------------------------------------
    P        Core       15      30.97   5.000000   1.050  0.000  1.750          
    O        Core        8      16.00   0.860000   0.730  0.000  1.360          
    Li       Core        3       6.94   1.000000   0.680  0.000  1.800          
    Ti       Core       22      47.88   4.000000   1.470  0.000  2.190          
    O        Shell       8       0.00  -2.860000   0.730  0.000  1.360          
    Al       Core       13      26.98   3.000000   1.350  0.000  2.050          
--------------------------------------------------------------------------------


  Lattice summation method               =    Ewald          (3-D)
                                         =    Parry          (2-D)
                                         =    Saunders et al (1-D)
  Accuracy factor for lattice sums       =   12.000


  Time limit = Infinity

  Maximum range for interatomic potentials =    100000.000000 Angstroms

  General interatomic potentials :

--------------------------------------------------------------------------------
Atom  Types   Potential         A         B         C         D     Cutoffs(Ang)
  1     2                                                            Min    Max 
--------------------------------------------------------------------------------
O    s O    s Buckingham    0.128E+05 0.217      30.0      0.00     0.000 12.000
P    c O    s Buckingham     897.     0.358      0.00      0.00     0.000 12.000
Li   c O    s Buckingham     971.     0.266      0.00      0.00     0.000 12.000
Ti   c O    s Buckingham    0.665E+04 0.243      0.00      0.00     0.000 12.000
Al   c O    s Buckingham    0.176E+04 0.292      0.00      0.00     0.000 12.000
O    c O    s Spring (c-s)   65.0      0.00      0.00      0.00     0.000  0.800
--------------------------------------------------------------------------------

********************************************************************************
*  Output for configuration   1                                                *
********************************************************************************


  Components of energy : 

--------------------------------------------------------------------------------
  Interatomic potentials     =        1090.23590443 eV
  Monopole - monopole (real) =       -4089.69143876 eV
  Monopole - monopole (recip)=       -1888.21559794 eV
  Monopole - monopole (total)=       -5977.90703670 eV
--------------------------------------------------------------------------------
  Total lattice energy       =       -4887.67113227 eV
--------------------------------------------------------------------------------
  Total lattice energy       =         -471585.5494 kJ/(mole unit cells)
--------------------------------------------------------------------------------


  Number of variables =      546

  Maximum number of calculations  =          1000
  Maximum Hessian update interval =            10
  Maximum step size               =   1.000000000
  Maximum parameter tolerance     =   0.000010000
  Maximum function  tolerance     =   0.000010000
  Maximum gradient  tolerance     =   0.001000000
  Maximum gradient  component     =   0.010000000

  Symmetry not applied to optimisation

  Cell parameters to be optimised using strains

  Newton-Raphson optimiser to be used

  BFGS hessian update to be used

  Start of bulk optimisation :

  Cycle:      0 Energy:     -4887.671132  Gnorm:      5.600054  CPU:    0.615
  ** Hessian calculated **
  Cycle:      1 Energy:     -4957.309727  Gnorm:      1.950116  CPU:    2.057
  ** Hessian calculated **
  Cycle:      2 Energy:     -4972.441599  Gnorm:      0.612875  CPU:    3.274
  ** Hessian calculated **
  Cycle:      3 Energy:     -4976.901014  Gnorm:      0.538932  CPU:    5.007
  ** Hessian calculated **
  Cycle:      4 Energy:     -4979.066903  Gnorm:      0.360995  CPU:    6.247
  Cycle:      5 Energy:     -4980.207547  Gnorm:      0.349285  CPU:    7.137
  Cycle:      6 Energy:     -4981.091146  Gnorm:      0.295555  CPU:    7.842
  Cycle:      7 Energy:     -4981.926474  Gnorm:      0.277476  CPU:    8.550
  Cycle:      8 Energy:     -4982.594389  Gnorm:      0.214984  CPU:    9.266
  Cycle:      9 Energy:     -4983.136813  Gnorm:      0.220514  CPU:   10.147
  Cycle:     10 Energy:     -4983.571552  Gnorm:      0.207743  CPU:   11.020
  Cycle:     11 Energy:     -4984.071223  Gnorm:      0.201187  CPU:   11.719
  Cycle:     12 Energy:     -4984.472770  Gnorm:      0.178714  CPU:   12.414
  Cycle:     13 Energy:     -4984.856905  Gnorm:      0.187967  CPU:   13.286
  ** Hessian calculated **
  Cycle:     14 Energy:     -4986.890238  Gnorm:      0.130891  CPU:   15.062
  Cycle:     15 Energy:     -4987.363680  Gnorm:      0.089929  CPU:   15.804
  Cycle:     16 Energy:     -4987.652506  Gnorm:      0.064235  CPU:   16.523
  Cycle:     17 Energy:     -4987.811306  Gnorm:      0.056000  CPU:   17.227
  Cycle:     18 Energy:     -4987.900883  Gnorm:      0.037961  CPU:   17.916
  Cycle:     19 Energy:     -4987.960919  Gnorm:      0.029261  CPU:   18.605
  Cycle:     20 Energy:     -4987.981744  Gnorm:      0.018914  CPU:   19.296
  Cycle:     21 Energy:     -4987.989767  Gnorm:      0.011555  CPU:   19.987
  Cycle:     22 Energy:     -4987.993957  Gnorm:      0.007490  CPU:   20.681
  Cycle:     23 Energy:     -4987.995310  Gnorm:      0.004786  CPU:   21.376
  ** Hessian calculated **
  Cycle:     24 Energy:     -4987.996101  Gnorm:      0.000199  CPU:   22.739


  **** Optimisation achieved ****


  Final energy =   -4987.99610200 eV
  Final Gnorm  =       0.00000261

  Components of energy : 

--------------------------------------------------------------------------------
  Interatomic potentials     =        1439.33315862 eV
  Monopole - monopole (real) =       -3767.10953155 eV
  Monopole - monopole (recip)=       -2660.21972907 eV
  Monopole - monopole (total)=       -6427.32926062 eV
--------------------------------------------------------------------------------
  Total lattice energy       =       -4987.99610200 eV
--------------------------------------------------------------------------------
  Total lattice energy       =         -481265.3753 kJ/(mole unit cells)
--------------------------------------------------------------------------------

  Final fractional coordinates of atoms :

--------------------------------------------------------------------------------
   No.  Atomic        x           y          z          Radius
        Label       (Frac)      (Frac)     (Frac)       (Angs) 
--------------------------------------------------------------------------------
     1  P     c     0.290500    0.000000    0.250000    0.000000
     2  P     c     0.708986    0.704589    0.250000    0.000000
     3  P     c     0.995089    0.286103    0.250000    0.000000
     4  P     c     0.288905    0.288731    0.751453    0.000000
     5  P     c     0.999312    0.706185    0.751453    0.000000
     6  P     c     0.706358    0.995777    0.751453    0.000000
     7  P     c     0.953411    0.326904    0.586079    0.000000
     8  P     c     0.372980    0.041678    0.586079    0.000000
     9  P     c     0.668185    0.622110    0.586079    0.000000
    10  P     c     0.956450    0.622937    0.082694    0.000000
    11  P     c     0.665972    0.038639    0.082694    0.000000
    12  P     c     0.372153    0.329117    0.082694    0.000000
    13  P     c     0.622833    0.662656    0.917118    0.000000
    14  P     c     0.039309    0.372257    0.917118    0.000000
    15  P     c     0.332434    0.955780    0.917118    0.000000
    16  P     c     0.637660    0.965413    0.418790    0.000000
    17  P     c     0.327238    0.357429    0.418790    0.000000
    18  P     c     0.029676    0.667851    0.418790    0.000000
    19  O     c     0.206579    0.026281    0.312356    0.000000
    20  O     c     0.819188    0.788510    0.312356    0.000000
    21  O     c     0.968809    0.175902    0.312356    0.000000
    22  O     c     0.199220    0.169314    0.813135    0.000000
    23  O     c     0.969579    0.795869    0.813135    0.000000
    24  O     c     0.825775    0.025510    0.813135    0.000000
    25  O     c     0.796167    0.968790    0.688778    0.000000
    26  O     c     0.172109    0.198922    0.688778    0.000000
    27  O     c     0.026299    0.822980    0.688778    0.000000
    28  O     c     0.798163    0.822348    0.187216    0.000000
    29  O     c     0.023671    0.196926    0.187216    0.000000
    30  O     c     0.172741    0.971418    0.187216    0.000000
    31  O     c     0.862000    0.351701    0.648009    0.000000
    32  O     c     0.489187    0.133089    0.648009    0.000000
    33  O     c     0.643388    0.505902    0.648009    0.000000
    34  O     c     0.866352    0.503689    0.144340    0.000000
    35  O     c     0.636823    0.128737    0.144340    0.000000
    36  O     c     0.491401    0.358267    0.144340    0.000000
    37  O     c     0.461218    0.299541    0.020208    0.000000
    38  O     c     0.837809    0.533871    0.020208    0.000000
    39  O     c     0.695548    0.157280    0.020208    0.000000
    40  O     c     0.463586    0.156932    0.523155    0.000000
    41  O     c     0.692831    0.531503    0.523155    0.000000
    42  O     c     0.838158    0.302258    0.523155    0.000000
    43  O     c     0.532948    0.692244    0.978812    0.000000
    44  O     c     0.158783    0.462141    0.978812    0.000000
    45  O     c     0.302845    0.836306    0.978812    0.000000
    46  O     c     0.521354    0.834890    0.480080    0.000000
    47  O     c     0.313022    0.473735    0.480080    0.000000
    48  O     c     0.160199    0.682067    0.480080    0.000000
    49  O     c     0.141097    0.643643    0.358170    0.000000
    50  O     c     0.502032    0.853992    0.358170    0.000000
    51  O     c     0.351446    0.493057    0.358170    0.000000
    52  O     c     0.128540    0.490217    0.854596    0.000000
    53  O     c     0.361163    0.866549    0.854596    0.000000
    54  O     c     0.504872    0.633926    0.854596    0.000000
    55  O     c     0.016075    0.844506    0.418576    0.000000
    56  O     c     0.827916    0.979013    0.418576    0.000000
    57  O     c     0.150584    0.167173    0.418576    0.000000
    58  O     c     0.019267    0.170853    0.915107    0.000000
    59  O     c     0.151072    0.975822    0.915107    0.000000
    60  O     c     0.824236    0.844017    0.915107    0.000000
    61  O     c     0.974720    0.146614    0.586307    0.000000
    62  O     c     0.171380    0.020369    0.586307    0.000000
    63  O     c     0.848475    0.823710    0.586307    0.000000
    64  O     c     0.977886    0.824653    0.084428    0.000000
    65  O     c     0.846253    0.017204    0.084428    0.000000
    66  O     c     0.170436    0.148836    0.084428    0.000000
    67  O     c     0.683693    0.175683    0.749949    0.000000
    68  O     c     0.491476    0.311396    0.749949    0.000000
    69  O     c     0.819406    0.503613    0.749949    0.000000
    70  O     c     0.683028    0.500279    0.246465    0.000000
    71  O     c     0.816736    0.312060    0.246465    0.000000
    72  O     c     0.494810    0.178353    0.246465    0.000000
    73  O     c     0.642660    0.481413    0.918571    0.000000
    74  O     c     0.838239    0.352429    0.918571    0.000000
    75  O     c     0.513676    0.156850    0.918571    0.000000
    76  O     c     0.637538    0.156170    0.419747    0.000000
    77  O     c     0.518119    0.357552    0.419747    0.000000
    78  O     c     0.838919    0.476970    0.419747    0.000000
    79  O     c     0.353117    0.511029    0.080523    0.000000
    80  O     c     0.157397    0.641972    0.080523    0.000000
    81  O     c     0.484061    0.837692    0.080523    0.000000
    82  O     c     0.353641    0.840118    0.586889    0.000000
    83  O     c     0.485963    0.641448    0.586889    0.000000
    84  O     c     0.154971    0.509127    0.586889    0.000000
    85  O     c     0.312243    0.817726    0.249178    0.000000
    86  O     c     0.504969    0.682847    0.249178    0.000000
    87  O     c     0.177363    0.490120    0.249178    0.000000
    88  O     c     0.307234    0.489326    0.752919    0.000000
    89  O     c     0.181578    0.687855    0.752919    0.000000
    90  O     c     0.505763    0.813511    0.752919    0.000000
    91  Li    c     0.998192    0.996897    0.501045    0.000000
    92  Li    c     0.998192    0.996897    0.001222    0.000000
    93  Li    c     0.664858    0.330231    0.835583    0.000000
    94  Li    c     0.664859    0.330231    0.327916    0.000000
    95  Li    c     0.331525    0.663564    0.165734    0.000000
    96  Li    c     0.331525    0.663564    0.672085    0.000000
    97  Ti    c     0.998192    0.996897    0.856583    0.000000
    98  Ti    c     0.998192    0.996897    0.646223    0.000000
    99  Ti    c     0.998192    0.996897    0.144198    0.000000
   100  Ti    c     0.664858    0.330231    0.691591    0.000000
   101  Ti    c     0.664858    0.330231    0.187086    0.000000
   102  Ti    c     0.664858    0.330231    0.978104    0.000000
   103  Ti    c     0.664858    0.330231    0.479888    0.000000
   104  Ti    c     0.331525    0.663564    0.022015    0.000000
   105  Ti    c     0.331525    0.663564    0.530091    0.000000
   106  Ti    c     0.331525    0.663564    0.306598    0.000000
   107  Ti    c     0.331525    0.663564    0.812478    0.000000
   108  Al    c     0.998192    0.996897    0.351743    0.000000
   109  Li    c     0.331525    0.663564    0.418625    0.000000
   110  O     s     0.208464    0.020098    0.303761    0.000000
   111  O     s     0.811120    0.786625    0.303761    0.000000
   112  O     s     0.974991    0.183969    0.303761    0.000000
   113  O     s     0.197604    0.174936    0.806266    0.000000
   114  O     s     0.976818    0.797485    0.806266    0.000000
   115  O     s     0.820153    0.018271    0.806266    0.000000
   116  O     s     0.798328    0.975386    0.695540    0.000000
   117  O     s     0.176543    0.196761    0.695540    0.000000
   118  O     s     0.019704    0.818546    0.695540    0.000000
   119  O     s     0.800558    0.818136    0.193818    0.000000
   120  O     s     0.017064    0.194531    0.193818    0.000000
   121  O     s     0.176952    0.978025    0.193818    0.000000
   122  O     s     0.860864    0.345780    0.641066    0.000000
   123  O     s     0.484402    0.134225    0.641066    0.000000
   124  O     s     0.649309    0.510687    0.641066    0.000000
   125  O     s     0.864640    0.509150    0.137403    0.000000
   126  O     s     0.643995    0.130449    0.137403    0.000000
   127  O     s     0.485940    0.351094    0.137403    0.000000
   128  O     s     0.463689    0.306740    0.026937    0.000000
   129  O     s     0.842537    0.531400    0.026937    0.000000
   130  O     s     0.688349    0.152552    0.026937    0.000000
   131  O     s     0.465397    0.152766    0.529882    0.000000
   132  O     s     0.686855    0.529692    0.529882    0.000000
   133  O     s     0.842323    0.308235    0.529882    0.000000
   134  O     s     0.531310    0.685040    0.971934    0.000000
   135  O     s     0.153216    0.463780    0.971934    0.000000
   136  O     s     0.310050    0.841873    0.971934    0.000000
   137  O     s     0.520715    0.837621    0.474948    0.000000
   138  O     s     0.316393    0.474375    0.474948    0.000000
   139  O     s     0.157468    0.678697    0.474948    0.000000
   140  O     s     0.141598    0.648520    0.363472    0.000000
   141  O     s     0.506407    0.853491    0.363472    0.000000
   142  O     s     0.346570    0.488682    0.363472    0.000000
   143  O     s     0.130963    0.485634    0.861353    0.000000
   144  O     s     0.354157    0.864127    0.861353    0.000000
   145  O     s     0.509455    0.640932    0.861353    0.000000
   146  O     s     0.017742    0.817287    0.416387    0.000000
   147  O     s     0.799030    0.977346    0.416387    0.000000
   148  O     s     0.177803    0.196059    0.416387    0.000000
   149  O     s     0.020795    0.189373    0.911561    0.000000
   150  O     s     0.168064    0.974294    0.911561    0.000000
   151  O     s     0.805716    0.827025    0.911561    0.000000
   152  O     s     0.973105    0.164293    0.590045    0.000000
   153  O     s     0.190674    0.021984    0.590045    0.000000
   154  O     s     0.830796    0.804415    0.590045    0.000000
   155  O     s     0.976011    0.805453    0.087880    0.000000
   156  O     s     0.828928    0.019078    0.087880    0.000000
   157  O     s     0.189636    0.166161    0.087880    0.000000
   158  O     s     0.685830    0.159142    0.746341    0.000000
   159  O     s     0.472797    0.309259    0.746341    0.000000
   160  O     s     0.835947    0.522292    0.746341    0.000000
   161  O     s     0.685698    0.518795    0.243211    0.000000
   162  O     s     0.832583    0.309391    0.243211    0.000000
   163  O     s     0.476294    0.162506    0.243211    0.000000
   164  O     s     0.641217    0.498889    0.922067    0.000000
   165  O     s     0.857158    0.353872    0.922067    0.000000
   166  O     s     0.496200    0.137931    0.922067    0.000000
   167  O     s     0.639933    0.137763    0.423527    0.000000
   168  O     s     0.497317    0.355157    0.423527    0.000000
   169  O     s     0.857326    0.497773    0.423527    0.000000
   170  O     s     0.354424    0.493941    0.077009    0.000000
   171  O     s     0.139003    0.640665    0.077009    0.000000
   172  O     s     0.501148    0.856086    0.077009    0.000000
   173  O     s     0.354857    0.857556    0.582900    0.000000
   174  O     s     0.502185    0.640232    0.582900    0.000000
   175  O     s     0.137533    0.492904    0.582900    0.000000
   176  O     s     0.310491    0.832803    0.253273    0.000000
   177  O     s     0.521798    0.684598    0.253273    0.000000
   178  O     s     0.162286    0.473291    0.253273    0.000000
   179  O     s     0.306243    0.470769    0.756371    0.000000
   180  O     s     0.164012    0.688846    0.756371    0.000000
   181  O     s     0.524320    0.831077    0.756371    0.000000
--------------------------------------------------------------------------------

  Final Cartesian lattice vectors (Angstroms) :

        8.233124   -0.000000   -0.000000
       -4.116562    7.130095   -0.000000
       -0.000000   -0.000000   20.985017


  Final cell parameters and derivatives :

--------------------------------------------------------------------------------
       a            8.233124 Angstrom     dE/de1(xx)     0.000061 eV/strain
       b            8.233124 Angstrom     dE/de2(yy)     0.000071 eV/strain
       c           20.985017 Angstrom     dE/de3(zz)     0.000110 eV/strain
       alpha       90.000000 Degrees      dE/de4(yz)    -0.000005 eV/strain
       beta        90.000000 Degrees      dE/de5(xz)    -0.000099 eV/strain
       gamma      120.000000 Degrees      dE/de6(xy)    -0.000128 eV/strain
--------------------------------------------------------------------------------

  Primitive cell volume =          1231.882477 Angs**3

  Density of cell =      3.116149 g/cm**3

  Non-primitive cell volume =          1231.882477 Angs**3


  Final internal derivatives :

--------------------------------------------------------------------------------
   No.  Atomic          a             b             c           Radius
        Label          (eV)          (eV)          (eV)        (eV/Angs)
--------------------------------------------------------------------------------
      1 P     c       0.000000      0.000000      0.000000      0.000000
      2 P     c      -0.000009     -0.000024      0.000029      0.000000
      3 P     c       0.000066     -0.000044     -0.000080      0.000000
      4 P     c       0.000009     -0.000017     -0.000041      0.000000
      5 P     c      -0.000014     -0.000001      0.000020      0.000000
      6 P     c       0.000013     -0.000039     -0.000006      0.000000
      7 P     c       0.000015      0.000049     -0.000096      0.000000
      8 P     c      -0.000045      0.000056     -0.000017      0.000000
      9 P     c      -0.000004      0.000012      0.000067      0.000000
     10 P     c      -0.000016      0.000009      0.000008      0.000000
     11 P     c       0.000008     -0.000020      0.000026      0.000000
     12 P     c       0.000004     -0.000018      0.000122      0.000000
     13 P     c       0.000008      0.000008     -0.000005      0.000000
     14 P     c       0.000000      0.000024      0.000035      0.000000
     15 P     c      -0.000001      0.000003      0.000013      0.000000
     16 P     c      -0.000107      0.000053     -0.000029      0.000000
     17 P     c      -0.000107      0.000030     -0.000037      0.000000
     18 P     c       0.000109     -0.000014      0.000143      0.000000
     19 O     c      -0.000157      0.000091      0.000239      0.000000
     20 O     c       0.000015      0.000016      0.000046      0.000000
     21 O     c       0.000056     -0.000090      0.000147      0.000000
     22 O     c      -0.000001     -0.000024      0.000031      0.000000
     23 O     c      -0.000005      0.000009      0.000022      0.000000
     24 O     c       0.000016     -0.000013      0.000038      0.000000
     25 O     c       0.000014     -0.000001      0.000009      0.000000
     26 O     c      -0.000008     -0.000004      0.000013      0.000000
     27 O     c      -0.000005      0.000014     -0.000020      0.000000
     28 O     c       0.000013      0.000020     -0.000101      0.000000
     29 O     c       0.000021      0.000000     -0.000077      0.000000
     30 O     c      -0.000063      0.000023      0.000196      0.000000
     31 O     c       0.000006     -0.000002      0.000053      0.000000
     32 O     c       0.000041     -0.000004      0.000041      0.000000
     33 O     c      -0.000027      0.000010      0.000083      0.000000
     34 O     c      -0.000014      0.000009     -0.000024      0.000000
     35 O     c      -0.000002     -0.000004      0.000009      0.000000
     36 O     c       0.000006     -0.000000     -0.000000      0.000000
     37 O     c       0.000015     -0.000004     -0.000023      0.000000
     38 O     c      -0.000023     -0.000014     -0.000032      0.000000
     39 O     c      -0.000018      0.000017      0.000011      0.000000
     40 O     c      -0.000027      0.000018      0.000021      0.000000
     41 O     c       0.000048     -0.000044     -0.000129      0.000000
     42 O     c      -0.000040      0.000012      0.000021      0.000000
     43 O     c      -0.000019      0.000003      0.000034      0.000000
     44 O     c       0.000007      0.000013     -0.000010      0.000000
     45 O     c      -0.000004      0.000006     -0.000018      0.000000
     46 O     c       0.000017     -0.000052      0.000162      0.000000
     47 O     c      -0.000064      0.000063      0.000143      0.000000
     48 O     c      -0.000018      0.000029     -0.000097      0.000000
     49 O     c       0.000010     -0.000025     -0.000102      0.000000
     50 O     c      -0.000006      0.000030      0.000125      0.000000
     51 O     c       0.000001      0.000028     -0.000052      0.000000
     52 O     c       0.000005      0.000015     -0.000009      0.000000
     53 O     c       0.000002     -0.000004     -0.000018      0.000000
     54 O     c      -0.000011      0.000004     -0.000041      0.000000
     55 O     c      -0.000040      0.000070     -0.000006      0.000000
     56 O     c       0.000222     -0.000138      0.000241      0.000000
     57 O     c      -0.000018     -0.000064      0.000020      0.000000
     58 O     c       0.000008     -0.000006      0.000011      0.000000
     59 O     c      -0.000004     -0.000008      0.000019      0.000000
     60 O     c       0.000006     -0.000014      0.000020      0.000000
     61 O     c       0.000019     -0.000027     -0.000032      0.000000
     62 O     c       0.000021      0.000013     -0.000175      0.000000
     63 O     c       0.000007     -0.000043      0.000114      0.000000
     64 O     c      -0.000001     -0.000011      0.000028      0.000000
     65 O     c      -0.000002     -0.000000      0.000008      0.000000
     66 O     c       0.000042      0.000012      0.000055      0.000000
     67 O     c      -0.000004      0.000026      0.000021      0.000000
     68 O     c       0.000011     -0.000005     -0.000011      0.000000
     69 O     c       0.000006      0.000004     -0.000002      0.000000
     70 O     c      -0.000014      0.000021      0.000127      0.000000
     71 O     c      -0.000058      0.000024      0.000059      0.000000
     72 O     c      -0.000098     -0.000006     -0.000291      0.000000
     73 O     c      -0.000014     -0.000006     -0.000036      0.000000
     74 O     c      -0.000023      0.000013      0.000032      0.000000
     75 O     c      -0.000012      0.000013      0.000010      0.000000
     76 O     c      -0.000014     -0.000045      0.000162      0.000000
     77 O     c       0.000071     -0.000058     -0.000039      0.000000
     78 O     c      -0.000026     -0.000192     -0.000122      0.000000
     79 O     c       0.000030     -0.000031      0.000008      0.000000
     80 O     c      -0.000009      0.000015     -0.000059      0.000000
     81 O     c       0.000009      0.000017     -0.000013      0.000000
     82 O     c       0.000032     -0.000101     -0.000009      0.000000
     83 O     c      -0.000059      0.000022     -0.000003      0.000000
     84 O     c      -0.000047      0.000008     -0.000027      0.000000
     85 O     c       0.000109     -0.000183      0.000115      0.000000
     86 O     c       0.000026     -0.000015     -0.000070      0.000000
     87 O     c      -0.000001     -0.000028      0.000018      0.000000
     88 O     c      -0.000008      0.000010     -0.000006      0.000000
     89 O     c       0.000008      0.000012      0.000001      0.000000
     90 O     c       0.000010      0.000006      0.000004      0.000000
     91 Li    c      -0.000001      0.000006     -0.000012      0.000000
     92 Li    c       0.000000     -0.000004     -0.000011      0.000000
     93 Li    c      -0.000002      0.000001     -0.000004      0.000000
     94 Li    c       0.000008      0.000014     -0.000066      0.000000
     95 Li    c       0.000006     -0.000011      0.000008      0.000000
     96 Li    c      -0.000002     -0.000001     -0.000005      0.000000
     97 Ti    c       0.000009     -0.000019     -0.000074      0.000000
     98 Ti    c       0.000024     -0.000021      0.000137      0.000000
     99 Ti    c       0.000070     -0.000044     -0.000025      0.000000
    100 Ti    c      -0.000034     -0.000009      0.000019      0.000000
    101 Ti    c      -0.000038     -0.000004     -0.000032      0.000000
    102 Ti    c       0.000007      0.000005      0.000067      0.000000
    103 Ti    c       0.000078     -0.000033      0.000088      0.000000
    104 Ti    c      -0.000010     -0.000001     -0.000012      0.000000
    105 Ti    c      -0.000013      0.000008      0.000069      0.000000
    106 Ti    c      -0.000001      0.000011      0.000011      0.000000
    107 Ti    c       0.000008      0.000000      0.000022      0.000000
    108 Al    c      -0.000086      0.000053     -0.000025      0.000000
    109 Li    c      -0.000001      0.000019     -0.000023      0.000000
    110 O     s       0.000114     -0.000065      0.000231      0.000000
    111 O     s      -0.000057      0.000005     -0.000075      0.000000
    112 O     s      -0.000067      0.000096      0.000106      0.000000
    113 O     s      -0.000002      0.000031     -0.000014      0.000000
    114 O     s       0.000015     -0.000017     -0.000024      0.000000
    115 O     s      -0.000022      0.000011     -0.000012      0.000000
    116 O     s      -0.000041      0.000023     -0.000006      0.000000
    117 O     s       0.000010      0.000014      0.000017      0.000000
    118 O     s       0.000022     -0.000041      0.000031      0.000000
    119 O     s       0.000014      0.000014      0.000014      0.000000
    120 O     s      -0.000031      0.000036     -0.000036      0.000000
    121 O     s       0.000104     -0.000142     -0.000288      0.000000
    122 O     s       0.000029     -0.000001     -0.000037      0.000000
    123 O     s      -0.000038      0.000006      0.000055      0.000000
    124 O     s      -0.000022      0.000036      0.000001      0.000000
    125 O     s       0.000020     -0.000031      0.000054      0.000000
    126 O     s       0.000018     -0.000015     -0.000072      0.000000
    127 O     s       0.000004     -0.000002     -0.000103      0.000000
    128 O     s      -0.000023      0.000010      0.000062      0.000000
    129 O     s       0.000036      0.000001      0.000023      0.000000
    130 O     s       0.000032     -0.000047      0.000030      0.000000
    131 O     s       0.000019      0.000005     -0.000090      0.000000
    132 O     s      -0.000014      0.000009     -0.000040      0.000000
    133 O     s       0.000052     -0.000015      0.000048      0.000000
    134 O     s       0.000013     -0.000002     -0.000040      0.000000
    135 O     s      -0.000007     -0.000012      0.000001      0.000000
    136 O     s       0.000003      0.000004     -0.000019      0.000000
    137 O     s      -0.000052      0.000032      0.000115      0.000000
    138 O     s       0.000062     -0.000069     -0.000073      0.000000
    139 O     s      -0.000021      0.000009      0.000079      0.000000
    140 O     s      -0.000012     -0.000027     -0.000035      0.000000
    141 O     s      -0.000018     -0.000025     -0.000242      0.000000
    142 O     s       0.000029     -0.000023     -0.000083      0.000000
    143 O     s      -0.000009     -0.000023      0.000004      0.000000
    144 O     s      -0.000011      0.000020      0.000040      0.000000
    145 O     s       0.000014      0.000001      0.000012      0.000000
    146 O     s      -0.000076      0.000049      0.000169      0.000000
    147 O     s       0.000055     -0.000056     -0.000200      0.000000
    148 O     s       0.000032     -0.000043      0.000008      0.000000
    149 O     s      -0.000020      0.000018      0.000042      0.000000
    150 O     s       0.000013      0.000009      0.000016      0.000000
    151 O     s      -0.000018      0.000024      0.000040      0.000000
    152 O     s      -0.000006     -0.000001     -0.000104      0.000000
    153 O     s      -0.000020     -0.000004      0.000054      0.000000
    154 O     s      -0.000010      0.000077     -0.000164      0.000000
    155 O     s       0.000019      0.000003     -0.000037      0.000000
    156 O     s      -0.000022      0.000020     -0.000014      0.000000
    157 O     s      -0.000003     -0.000007     -0.000103      0.000000
    158 O     s       0.000007     -0.000018      0.000027      0.000000
    159 O     s      -0.000032      0.000008      0.000047      0.000000
    160 O     s       0.000007     -0.000004      0.000015      0.000000
    161 O     s      -0.000012     -0.000008     -0.000024      0.000000
    162 O     s       0.000007      0.000021      0.000033      0.000000
    163 O     s       0.000049     -0.000035      0.000284      0.000000
    164 O     s       0.000011     -0.000003      0.000003      0.000000
    165 O     s       0.000031     -0.000013     -0.000052      0.000000
    166 O     s       0.000019     -0.000024     -0.000011      0.000000
    167 O     s      -0.000059      0.000199     -0.000350      0.000000
    168 O     s       0.000020      0.000103     -0.000021      0.000000
    169 O     s       0.000040      0.000038      0.000127      0.000000
    170 O     s      -0.000023      0.000004     -0.000011      0.000000
    171 O     s      -0.000014     -0.000012      0.000064      0.000000
    172 O     s       0.000004      0.000005      0.000022      0.000000
    173 O     s      -0.000002      0.000027      0.000033      0.000000
    174 O     s       0.000008      0.000014      0.000014      0.000000
    175 O     s      -0.000009      0.000003     -0.000022      0.000000
    176 O     s      -0.000039      0.000130     -0.000153      0.000000
    177 O     s      -0.000014      0.000020      0.000169      0.000000
    178 O     s      -0.000056      0.000035     -0.000092      0.000000
    179 O     s       0.000006     -0.000006     -0.000026      0.000000
    180 O     s      -0.000012     -0.000017     -0.000032      0.000000
    181 O     s       0.000002     -0.000012     -0.000033      0.000000
--------------------------------------------------------------------------------
  Maximum abs         0.000222      0.000199      0.000350      0.000000
--------------------------------------------------------------------------------


  Time to end of optimisation =      23.4312 seconds


  Peak dynamic memory used =       7.01 MB 


  Timing analysis for GULP :

--------------------------------------------------------------------------------
  Task / Subroutine                                          Time (Seconds)
--------------------------------------------------------------------------------
  Calculation of reciprocal space energy and derivatives          0.8534
  Calculation of real space energy and derivatives               22.0958
  Calculation of matrix inversion                                 0.4201
  Global summation overhead                                       0.0004
--------------------------------------------------------------------------------
  Total CPU time                                                 23.4312
--------------------------------------------------------------------------------


  Job Finished at 12:01.44 17th October    2016                               

