LAMMPS data file via write_data, version 5 Nov 2016, timestep = 156000

3000 atoms
4 atom types

4.7672551742018143e+00 3.7677239825797571e+01 xlo xhi
5.5399301094087541e+00 3.6904564890593221e+01 ylo yhi
4.4489675228212882e+00 3.7995527477180502e+01 zlo zhi

Masses

1 10.811
2 6.941
3 15.9994
4 50.9415

Pair Coeffs # buck/coul/long

1 0 1 0
2 0 1 0
3 12759.2 0.21739 29.9751
4 0 1 0

Atoms # full

1041 0 3 -2.0000000000000000e+00 8.8874711341772823e+00 7.5688124686121725e+00 7.2342862198024562e+00 0 0 0
2881 0 4 5.0000000000000000e+00 7.3664133980270270e+00 7.4261431764305037e+00 7.2234342762896766e+00 0 0 0
1696 0 3 -2.0000000000000000e+00 6.7198957646651625e+00 8.3685590191213848e+00 8.1631065632728497e+00 0 1 0
953 0 3 -2.0000000000000000e+00 9.0205598624930303e+00 9.9454270376326050e+00 7.7635133725524810e+00 0 0 0
1441 0 3 -2.0000000000000000e+00 6.6747994940749251e+00 7.7101240223877152e+00 5.7484686493840655e+00 0 0 0
1905 0 3 -2.0000000000000000e+00 7.1481759239575471e+00 5.8719546257211936e+00 7.5682597360521129e+00 0 0 0
395 0 2 1.0000000000000000e+00 5.4855114267702554e+00 9.8379208210906803e+00 8.2782933414397490e+00 1 0 1
253 0 2 1.0000000000000000e+00 7.5171244558930965e+00 9.9388601215429677e+00 9.0920635778068579e+00 0 0 0
761 0 2 1.0000000000000000e+00 7.9691047766368612e+00 1.1238913203519196e+01 7.2597620452129394e+00 0 0 1
145 0 1 3.0000000000000000e+00 5.6766436022148872e+00 1.1906926906250604e+01 6.8208700527318058e+00 0 0 0
2017 0 3 -2.0000000000000000e+00 6.2983528728368094e+00 1.1702489249463753e+01 7.9752398377408547e+00 0 0 0
1009 0 3 -2.0000000000000000e+00 6.5947842416117739e+00 1.1486246593955777e+01 5.6831068590310352e+00 0 0 0
2225 0 3 -2.0000000000000000e+00 5.3017391540856327e+00 1.3245782805569332e+01 6.6378245764450448e+00 0 0 0
491 0 2 1.0000000000000000e+00 6.0299288243520754e+00 1.1791595751983728e+01 9.8300397831826878e+00 1 0 0
237 0 2 1.0000000000000000e+00 1.0192180991572906e+01 1.1099077713866144e+01 4.8503589874799786e+00 0 0 1
2969 0 4 5.0000000000000000e+00 1.0327610940586554e+01 9.1980157954879189e+00 7.9119634858089780e+00 0 0 0
600 0 2 1.0000000000000000e+00 1.0477409353845085e+01 6.3441236388371918e+00 6.9688196559191962e+00 0 1 0
2377 0 3 -2.0000000000000000e+00 1.0477044051648274e+01 8.5313709331621670e+00 9.2596480992418151e+00 0 0 0
1149 0 3 -2.0000000000000000e+00 1.1254122741188716e+01 8.4421338708496236e+00 6.8653168910205231e+00 0 0 0
925 0 3 -2.0000000000000000e+00 1.3810808766355676e+01 8.5696359685504966e+00 8.5225741307584304e+00 0 0 0
2717 0 4 5.0000000000000000e+00 1.3538278023702999e+01 7.1824139693411269e+00 9.0079585999448284e+00 0 0 0
1769 0 3 -2.0000000000000000e+00 1.1929455675007910e+01 6.6774370208851934e+00 5.4155826703511405e+00 0 0 1
2125 0 3 -2.0000000000000000e+00 1.4931874400584697e+01 6.5232058084372015e+00 9.3206805935811907e+00 0 0 0
2468 0 3 -2.0000000000000000e+00 1.2939345005635305e+01 6.2208737233103930e+00 7.9410380603201656e+00 0 1 0
809 0 2 1.0000000000000000e+00 1.3894311165030416e+01 9.5709773997633629e+00 6.9685252374672508e+00 0 0 0
261 0 2 1.0000000000000000e+00 1.3197156238265123e+01 1.0362022770634439e+01 9.0170829042897402e+00 0 0 0
913 0 3 -2.0000000000000000e+00 1.3219582048432484e+01 8.9906230527110509e+00 5.1783106754446955e+00 0 0 1
2777 0 4 5.0000000000000000e+00 1.1796108425629459e+01 8.2970772268936042e+00 5.0957394735704442e+00 0 0 1
1821 0 3 -2.0000000000000000e+00 1.4299766894008181e+01 6.0880733604116353e+00 5.9271659567846680e+00 0 0 0
1401 0 3 -2.0000000000000000e+00 1.1324402270541741e+01 1.0555430846521764e+01 7.9891440671251974e+00 0 0 0
490 0 2 1.0000000000000000e+00 1.4731184852475170e+01 7.6700138798247215e+00 4.8775099397173260e+00 0 1 0
2521 0 3 -2.0000000000000000e+00 1.0743609095275076e+01 1.2833030879518065e+01 8.6655450109943644e+00 0 0 0
1673 0 3 -2.0000000000000000e+00 1.1299886339178249e+01 1.2053226706901810e+01 6.0785245819571276e+00 0 0 0
2745 0 4 5.0000000000000000e+00 1.1757526333946304e+01 1.2293974220592156e+01 7.4934463991085707e+00 0 0 0
1373 0 3 -2.0000000000000000e+00 1.3208387534922677e+01 1.2020445314469399e+01 7.9154212682803005e+00 0 0 0
605 0 2 1.0000000000000000e+00 1.5136015955459770e+01 1.2015594041608999e+01 7.4670072266563103e+00 0 0 0
1561 0 3 -2.0000000000000000e+00 1.0629738013878002e+01 9.2645454279683346e+00 4.8642768188304419e+00 0 0 0
1037 0 3 -2.0000000000000000e+00 1.5713735175888441e+01 1.2887219965665444e+01 9.4651479639363174e+00 0 0 0
479 0 2 1.0000000000000000e+00 1.5787537222035272e+01 9.4493533260420897e+00 9.0414371135798266e+00 0 0 1
2029 0 3 -2.0000000000000000e+00 1.5829670822214574e+01 1.0176282746236343e+01 7.1296083852293446e+00 0 0 1
1933 0 3 -2.0000000000000000e+00 1.5894684241536716e+01 1.3000493812022100e+01 5.2936038235687830e+00 0 0 0
628 0 2 1.0000000000000000e+00 1.5955785451275599e+01 6.8722721605170545e+00 6.8316700251478224e+00 0 1 0
2629 0 4 5.0000000000000000e+00 1.9365493183916513e+01 1.0329266746477144e+01 7.8377222928063777e+00 0 0 0
1261 0 3 -2.0000000000000000e+00 1.8230424740105676e+01 1.0214776261035487e+01 6.2137787985606803e+00 0 0 0
181 0 1 3.0000000000000000e+00 1.8513008265974307e+01 7.3465340338215848e+00 8.1565115228666158e+00 0 0 0
1189 0 3 -2.0000000000000000e+00 1.8829012083908118e+01 8.8001947236184037e+00 7.9273224966410982e+00 0 0 0
2197 0 3 -2.0000000000000000e+00 1.9357363900511892e+01 6.8047700189981590e+00 9.1536897657304905e+00 0 0 0
1709 0 3 -2.0000000000000000e+00 1.7130735682345453e+01 7.2321691482279000e+00 8.6352431563589356e+00 0 0 0
1077 0 3 -2.0000000000000000e+00 2.0005342930736095e+01 1.0243903322137555e+01 9.3890891267544312e+00 0 0 0
1301 0 3 -2.0000000000000000e+00 1.8672625453320574e+01 6.5489315398627825e+00 6.9246228002914512e+00 0 0 0
2861 0 4 5.0000000000000000e+00 1.6729993488914303e+01 9.8665281562916824e+00 5.9351662410388046e+00 0 0 0
2093 0 3 -2.0000000000000000e+00 1.6476420344848385e+01 8.4400128496180624e+00 5.4982039388352000e+00 0 0 1
1653 0 3 -2.0000000000000000e+00 2.0674106205772024e+01 1.0670465032591231e+01 6.9382865315865185e+00 0 0 0
405 0 2 1.0000000000000000e+00 1.7634141493130379e+01 1.2172141756484208e+01 9.6389227658233327e+00 0 0 0
1413 0 3 -2.0000000000000000e+00 1.8645886306252578e+01 1.1619839284527963e+01 8.1133589980747765e+00 0 0 0
1509 0 3 -2.0000000000000000e+00 2.0915396424352856e+01 9.5563153569433652e+00 4.9027721134738513e+00 0 0 1
109 0 1 3.0000000000000000e+00 1.6369836119847889e+01 7.0480591310996745e+00 9.8068224984147427e+00 0 0 0
2269 0 3 -2.0000000000000000e+00 1.6363967459477337e+01 1.0803193721877420e+01 4.7838202036845718e+00 0 0 0
357 0 2 1.0000000000000000e+00 1.9435485787435113e+01 1.1009078815783422e+01 4.8544429056393854e+00 0 0 1
799 0 2 1.0000000000000000e+00 1.8620078423877661e+01 1.3326718960318134e+01 7.6133382100398901e+00 0 0 0
1816 0 3 -2.0000000000000000e+00 9.8133535824139777e+00 2.1111255523532929e+01 6.4345889601883215e+00 0 0 0
496 0 2 1.0000000000000000e+00 6.0637622831175833e+00 1.3870431115927300e+01 8.4146295641090951e+00 0 1 0
1601 0 3 -2.0000000000000000e+00 6.0837700125056422e+00 1.4997269849490307e+01 5.0451366667275019e+00 0 0 1
1883 0 3 -2.0000000000000000e+00 5.1770134990999352e+00 1.5563877271558971e+01 7.3288279243351671e+00 1 0 0
89 0 1 3.0000000000000000e+00 9.9717748395210588e+00 1.5721849835365578e+01 4.9574618369774113e+00 0 0 1
2825 0 4 5.0000000000000000e+00 1.0043610410870105e+01 1.3970108096713998e+01 9.6548480027915602e+00 0 0 0
2529 0 3 -2.0000000000000000e+00 6.5235913400970382e+00 1.6096761869156836e+01 9.1496133406224516e+00 0 0 0
750 0 2 1.0000000000000000e+00 8.9737327494694661e+00 1.6367112715044037e+01 8.2670539655579738e+00 1 0 0
1289 0 3 -2.0000000000000000e+00 9.4958048452060133e+00 1.8193476753957142e+01 7.9080134153911033e+00 0 0 0
1569 0 3 -2.0000000000000000e+00 6.2547671765683379e+00 1.8180057974374677e+01 7.9436508254780680e+00 0 0 0
272 0 2 1.0000000000000000e+00 7.8882779942938441e+00 1.8910292568967080e+01 7.3572308486374611e+00 0 0 0
2923 0 4 5.0000000000000000e+00 5.3917460769407963e+00 1.6946786528236014e+01 8.1478967976978360e+00 1 0 0
2417 0 3 -2.0000000000000000e+00 5.8132937297425613e+00 2.0772389922828655e+01 6.6392310636042833e+00 0 0 0
57 0 1 3.0000000000000000e+00 1.0096629611716228e+01 1.8729277391403926e+01 8.9573932243437220e+00 0 0 0
393 0 2 1.0000000000000000e+00 5.7067311837855090e+00 2.0000934069190642e+01 8.3558661334081865e+00 0 0 0
1713 0 3 -2.0000000000000000e+00 8.6255398615906422e+00 1.5223546091496752e+01 4.8331994595269023e+00 0 0 0
104 0 1 3.0000000000000000e+00 9.1056252579904307e+00 2.0974935053287652e+01 5.1060556037407929e+00 0 0 0
1489 0 3 -2.0000000000000000e+00 8.5759705885704705e+00 1.4743689774980277e+01 9.8855978390954711e+00 0 0 0
1785 0 3 -2.0000000000000000e+00 1.0135994653824696e+01 2.0266661048246739e+01 8.7802559499370272e+00 0 0 0
2073 0 3 -2.0000000000000000e+00 7.7390028171522811e+00 2.1181453153031718e+01 5.3250053255604479e+00 0 0 0
2405 0 3 -2.0000000000000000e+00 2.0271355389085961e+01 1.8194245884187040e+01 1.6392121255486991e+01 0 0 0
865 0 2 1.0000000000000000e+00 1.1724527396692190e+01 1.3350224424286818e+01 4.8395915453840077e+00 0 0 0
317 0 2 1.0000000000000000e+00 1.0438549554047672e+01 1.7783664000835731e+01 6.5110927332140385e+00 0 0 0
2009 0 3 -2.0000000000000000e+00 1.0335562709260326e+01 1.5037723027029999e+01 8.4664501715214975e+00 0 0 0
969 0 3 -2.0000000000000000e+00 1.0535034770423273e+01 1.5743313728219571e+01 6.1924917910888198e+00 0 0 0
73 0 1 3.0000000000000000e+00 1.1286124642237304e+01 1.5329047156105045e+01 7.2974660093420622e+00 0 0 0
2153 0 3 -2.0000000000000000e+00 1.1953124679117455e+01 1.4045841975216085e+01 7.1852381832807453e+00 0 0 0
829 0 2 1.0000000000000000e+00 1.3605774087333568e+01 1.4574351716662683e+01 8.2443713361554263e+00 0 0 0
2109 0 3 -2.0000000000000000e+00 1.5289957292822823e+01 1.5140531152175159e+01 8.7198059474559102e+00 0 0 0
1113 0 3 -2.0000000000000000e+00 1.2163785464462849e+01 1.6310499293679108e+01 7.7139596491719855e+00 0 0 0
1065 0 3 -2.0000000000000000e+00 1.3948175294801890e+01 1.7748556261918985e+01 7.9451871053612679e+00 0 0 0
937 0 3 -2.0000000000000000e+00 1.2985765522806011e+01 1.9583417763810665e+01 5.7838579578673919e+00 0 0 1
2761 0 4 5.0000000000000000e+00 1.2797647455611601e+01 1.7300068496517600e+01 8.9490782691833957e+00 0 0 0
2473 0 3 -2.0000000000000000e+00 1.1503960291317892e+01 1.8226616238093776e+01 8.9967810392689778e+00 0 0 0
1005 0 3 -2.0000000000000000e+00 1.3990779099570950e+01 2.0292218083194257e+01 9.3582266916000236e+00 0 0 0
429 0 2 1.0000000000000000e+00 1.3228619655050919e+01 1.7764284212230713e+01 6.1241328420232417e+00 0 0 0
472 0 2 1.0000000000000000e+00 1.3760904174708470e+01 1.9752010815900341e+01 7.5669645671502401e+00 0 0 0
2685 0 4 5.0000000000000000e+00 1.3214338173407221e+01 2.0645636501266267e+01 4.8204437209273312e+00 0 0 0
717 0 2 1.0000000000000000e+00 1.5427433688632259e+01 1.6620217299646416e+01 7.6171286159188529e+00 0 0 0
2333 0 3 -2.0000000000000000e+00 1.3913875829865097e+01 1.6794373532946565e+01 4.6711592748553681e+00 0 0 0
2045 0 3 -2.0000000000000000e+00 1.2840572045688681e+01 1.5950881478013264e+01 9.9433559325300891e+00 0 0 0
933 0 3 -2.0000000000000000e+00 1.5782161843978486e+01 1.5270176660311206e+01 5.6163015530594187e+00 0 0 0
29 0 1 3.0000000000000000e+00 1.6257099996266938e+01 1.4242292000408977e+01 8.7165217069792824e+00 0 0 0
1757 0 3 -2.0000000000000000e+00 1.6583976035282017e+01 1.3851114378512722e+01 7.3744775709015471e+00 0 0 0
197 0 1 3.0000000000000000e+00 1.6402657842774779e+01 1.3979589077928189e+01 6.0038268899888498e+00 0 0 0
1237 0 3 -2.0000000000000000e+00 2.0382889594146079e+01 1.4244998371683769e+01 7.4639382669020176e+00 0 0 0
2413 0 3 -2.0000000000000000e+00 1.7896038559415835e+01 1.4253153130502296e+01 5.3203727856516370e+00 0 0 0
1381 0 3 -2.0000000000000000e+00 1.7400424305631532e+01 1.4549818008569783e+01 9.5691410265432246e+00 0 0 0
2389 0 3 -2.0000000000000000e+00 1.9482669175589855e+01 1.5517304075552820e+01 9.3568038514614074e+00 0 0 0
2613 0 4 5.0000000000000000e+00 2.0426256387340885e+01 1.5671373061505129e+01 7.9612263015841709e+00 0 0 0
485 0 2 1.0000000000000000e+00 1.8003589616120642e+01 1.6021818912134844e+01 5.9634550981617238e+00 0 0 0
2815 0 4 5.0000000000000000e+00 2.0863634038492524e+01 1.9956146563317439e+01 5.0316963489818392e+00 0 0 0
2277 0 3 -2.0000000000000000e+00 1.9520300789579643e+01 1.6711939449716560e+01 7.1742097790893995e+00 0 0 0
85 0 1 3.0000000000000000e+00 1.9202798212469801e+01 1.8074922831468449e+01 6.6736370015008539e+00 0 0 0
2092 0 3 -2.0000000000000000e+00 2.0237871492044846e+01 1.8789106217766921e+01 5.9624910536755742e+00 0 0 0
924 0 3 -2.0000000000000000e+00 1.8119085461307904e+01 1.7909658947389129e+01 5.7716737545797328e+00 0 0 1
2837 0 4 5.0000000000000000e+00 1.9280642609981761e+01 1.9629271055937092e+01 9.2708295792143289e+00 0 0 0
1916 0 3 -2.0000000000000000e+00 1.9173049013694673e+01 1.8846975135083202e+01 7.9604068588579526e+00 0 0 0
1740 0 3 -2.0000000000000000e+00 2.0708068817562619e+01 1.9846338055927841e+01 9.7922628111436651e+00 0 0 0
1052 0 3 -2.0000000000000000e+00 1.8779474228681600e+01 2.1058026404230674e+01 8.9762401543544978e+00 0 0 0
2517 0 3 -2.0000000000000000e+00 2.1154617519992303e+01 7.1872461287614140e+00 4.4908631219033142e+00 0 0 1
212 0 1 3.0000000000000000e+00 1.7487780830242805e+01 1.8189950555015741e+01 4.5508321674912136e+00 0 0 0
2955 0 4 5.0000000000000000e+00 4.8146052036597169e+00 9.7763224017581436e+00 1.3680355446664452e+01 1 0 0
721 0 2 1.0000000000000000e+00 8.6097581954449680e+00 6.7204216998370399e+00 1.2498030427671154e+01 0 0 0
843 0 2 1.0000000000000000e+00 9.5970345538321595e+00 9.3320955032618507e+00 1.3231692473080562e+01 1 0 0
2305 0 3 -2.0000000000000000e+00 5.9331633092617846e+00 8.4683131653705015e+00 1.4184340531757112e+01 0 0 0
1729 0 3 -2.0000000000000000e+00 8.4386874786197055e+00 7.9470824421165895e+00 1.3874805835986328e+01 0 0 0
2801 0 4 5.0000000000000000e+00 7.3125111355478385e+00 7.9851462405853777e+00 1.5039063093785042e+01 0 0 0
1936 0 3 -2.0000000000000000e+00 7.4550146313231025e+00 6.3317890499312117e+00 1.5210990044262468e+01 0 1 0
1329 0 3 -2.0000000000000000e+00 9.5711502062212173e+00 1.0458418174835055e+01 1.1745828834856722e+01 0 0 0
939 0 3 -2.0000000000000000e+00 5.8679179679515077e+00 1.0786833460827253e+01 1.4124944832034453e+01 1 0 0
2283 0 3 -2.0000000000000000e+00 7.4931343708824549e+00 1.0997310913082451e+01 1.0643011275077370e+01 1 0 0
2657 0 4 5.0000000000000000e+00 8.6302535266925027e+00 1.1527725069476748e+01 1.1395490366631883e+01 0 0 0
1153 0 3 -2.0000000000000000e+00 8.2469360977773363e+00 1.2528378989520640e+01 1.2572268460274042e+01 0 0 0
2361 0 3 -2.0000000000000000e+00 9.4239236898379026e+00 1.2655727375176273e+01 1.0568097043251687e+01 0 0 0
569 0 2 1.0000000000000000e+00 6.4373449795154345e+00 1.2506862325073381e+01 1.3717204860017670e+01 0 0 0
273 0 2 1.0000000000000000e+00 6.9916731593460995e+00 1.1083011262589160e+01 1.5654247019319881e+01 0 0 0
840 0 2 1.0000000000000000e+00 9.1718045821880967e+00 1.0616309648547169e+01 1.5597244718870328e+01 0 1 0
726 0 2 1.0000000000000000e+00 1.0308703943719607e+01 7.1260427663555905e+00 1.0538574395431041e+01 1 1 0
849 0 2 1.0000000000000000e+00 1.0645099791228258e+01 7.4124885368529085e+00 1.3913905734868401e+01 0 0 0
1497 0 3 -2.0000000000000000e+00 1.2529830741403543e+01 5.7927097106629928e+00 1.2126318738539727e+01 0 0 0
785 0 2 1.0000000000000000e+00 1.0740420566866220e+01 9.2115942224989844e+00 1.1068386202130268e+01 0 0 0
2557 0 3 -2.0000000000000000e+00 1.2814134025490649e+01 7.2803131399608514e+00 1.0346695349898624e+01 0 0 0
217 0 1 3.0000000000000000e+00 1.2461489717046870e+01 7.2315316271615240e+00 1.1857181412691824e+01 0 0 0
1961 0 3 -2.0000000000000000e+00 1.3591355964032893e+01 7.8205347412616923e+00 1.2561376648671269e+01 0 0 0
2297 0 3 -2.0000000000000000e+00 1.1250748552202579e+01 7.7338316195259100e+00 1.2092481350340982e+01 0 0 0
1577 0 3 -2.0000000000000000e+00 1.3200255076419779e+01 9.6617676156688361e+00 1.4486524443858727e+01 0 0 0
2845 0 4 5.0000000000000000e+00 1.4467063553157718e+01 8.2414938285865169e+00 1.4073258392371002e+01 0 0 0
1353 0 3 -2.0000000000000000e+00 1.3403901545215092e+01 6.9914613619451673e+00 1.4867444595573344e+01 0 0 0
1597 0 3 -2.0000000000000000e+00 1.5311901057478554e+01 9.3827728096519643e+00 1.3221445160607056e+01 0 0 0
557 0 2 1.0000000000000000e+00 1.4549892915204147e+01 9.2571498826366181e+00 1.1364312541417689e+01 0 0 0
1721 0 3 -2.0000000000000000e+00 1.1082958202038865e+01 6.1885635735224431e+00 1.5239985443031369e+01 0 0 0
2425 0 3 -2.0000000000000000e+00 1.0770049022812408e+01 1.0228949857987811e+01 1.4410946243430569e+01 0 0 0
2585 0 4 5.0000000000000000e+00 1.2118814588368467e+01 1.0686708928850102e+01 1.4699086386088146e+01 0 0 0
477 0 2 1.0000000000000000e+00 1.5431390841791487e+01 6.9101612247803637e+00 1.1969718681636259e+01 0 0 0
1541 0 3 -2.0000000000000000e+00 1.4331052218590596e+01 1.0975709307708140e+01 1.0451196524198522e+01 0 0 0
2909 0 4 5.0000000000000000e+00 1.4739350282918323e+01 1.2394260034294106e+01 1.0633365810757056e+01 0 0 0
1849 0 3 -2.0000000000000000e+00 1.2337000550837706e+01 1.2087680887887696e+01 1.4123654656715679e+01 0 0 0
1901 0 3 -2.0000000000000000e+00 1.5543679939311685e+01 1.2526367961552793e+01 1.1947802590533383e+01 0 0 0
1245 0 3 -2.0000000000000000e+00 1.5606561620263768e+01 7.0808528373948336e+00 1.3910496749440650e+01 0 0 0
633 0 2 1.0000000000000000e+00 1.0871099650426165e+01 1.3231677404002994e+01 1.2580915100512737e+01 0 0 0
709 0 2 1.0000000000000000e+00 1.5750332475171131e+01 1.1146382508151847e+01 1.3540104424181767e+01 0 0 0
1989 0 3 -2.0000000000000000e+00 1.6862545467434096e+01 5.9160062308643324e+00 1.0716982519309699e+01 0 0 0
2437 0 3 -2.0000000000000000e+00 1.9139059328488283e+01 6.0024439699631484e+00 1.1463293578200703e+01 0 0 0
2573 0 3 -2.0000000000000000e+00 1.6028826771824686e+01 8.0899564670490136e+00 1.0549605439958817e+01 0 0 0
2591 0 4 5.0000000000000000e+00 2.0439395360246465e+01 6.6706613609471024e+00 1.0363185228459347e+01 0 0 0
381 0 2 1.0000000000000000e+00 1.7430188483585411e+01 6.6986546970181573e+00 1.4637497160895427e+01 0 0 0
621 0 2 1.0000000000000000e+00 1.6743675675541589e+01 9.4289186399067226e+00 1.1865056848646276e+01 0 0 0
1877 0 3 -2.0000000000000000e+00 1.9848271851077950e+01 8.3930950150061836e+00 1.0980137204520574e+01 0 0 0
2917 0 4 5.0000000000000000e+00 1.9488058333031404e+01 9.9728545429211231e+00 1.1081612337069492e+01 0 0 0
1749 0 3 -2.0000000000000000e+00 1.9627870872513490e+01 6.9325585363579236e+00 1.4586259040440629e+01 0 0 0
421 0 2 1.0000000000000000e+00 1.9566526509134206e+01 7.5621025662422152e+00 1.2773887132038922e+01 0 0 0
1317 0 3 -2.0000000000000000e+00 1.8963362946213593e+01 9.8215212693686080e+00 1.2773896616085230e+01 0 0 0
1461 0 3 -2.0000000000000000e+00 1.9538725426742470e+01 9.2304335222854981e+00 1.5094414229577810e+01 0 0 0
2677 0 4 5.0000000000000000e+00 1.9167395660204257e+01 1.0604888719698913e+01 1.4466849660419507e+01 0 0 0
2053 0 3 -2.0000000000000000e+00 1.8149222541463232e+01 1.0600046167330662e+01 1.0700374606411010e+01 0 0 0
1485 0 3 -2.0000000000000000e+00 2.0718690912899092e+01 1.0975495349436741e+01 1.1525932093807107e+01 0 0 0
1605 0 3 -2.0000000000000000e+00 1.7714517774514292e+01 1.1339014652003268e+01 1.4426713128633230e+01 0 0 0
1837 0 3 -2.0000000000000000e+00 2.0448148747552978e+01 1.1295906338675042e+01 1.3731702100989770e+01 0 0 0
837 0 2 1.0000000000000000e+00 1.7397421534647144e+01 1.2725153476493436e+01 1.2234002877408388e+01 0 0 0
2901 0 4 5.0000000000000000e+00 2.0442996511649188e+01 7.8141914175032241e+00 1.5607453172978955e+01 0 0 0
449 0 2 1.0000000000000000e+00 6.4901867546007592e+00 2.1007557597206503e+01 1.4728742696828055e+01 0 0 0
2577 0 3 -2.0000000000000000e+00 9.4049977016502400e+00 1.8539437793973526e+01 1.0218565937219438e+01 0 0 0
1617 0 3 -2.0000000000000000e+00 6.1680686056580942e+00 1.4058891412278655e+01 1.0359159333053579e+01 0 0 0
1121 0 3 -2.0000000000000000e+00 7.6155058804426279e+00 1.4762145675187641e+01 1.2222445496402848e+01 0 0 0
49 0 1 3.0000000000000000e+00 8.2962538659698328e+00 1.3949189264598161e+01 1.3187174075657449e+01 0 0 0
1393 0 3 -2.0000000000000000e+00 9.6026951120366704e+00 1.4324753477131610e+01 1.3484001810782683e+01 0 0 0
2369 0 3 -2.0000000000000000e+00 7.5776464525090255e+00 1.3852010707155033e+01 1.4391595721063991e+01 0 0 0
2865 0 4 5.0000000000000000e+00 7.1438322521372815e+00 1.5333085105216679e+01 1.0656082012164404e+01 0 0 0
665 0 2 1.0000000000000000e+00 5.9587777326029139e+00 1.5037667640036709e+01 1.3440993581283896e+01 0 0 0
1793 0 3 -2.0000000000000000e+00 5.4555922541719228e+00 1.6083170278457168e+01 1.1592601835236323e+01 0 0 0
1200 0 3 -2.0000000000000000e+00 6.2737394789145426e+00 2.0950767803846560e+01 1.2810592778520373e+01 0 0 0
573 0 2 1.0000000000000000e+00 9.4278979575756043e+00 2.0582064594671813e+01 1.0637542574735765e+01 0 0 1
1937 0 3 -2.0000000000000000e+00 5.1660138072005113e+00 2.0321321614723601e+01 1.0753471207515988e+01 0 0 0
513 0 2 1.0000000000000000e+00 6.9035838789202604e+00 1.7340265035900870e+01 1.2761698872431154e+01 0 0 0
2737 0 4 5.0000000000000000e+00 6.5754990496285108e+00 2.0471570021733996e+01 1.1459771079967584e+01 0 0 0
2289 0 3 -2.0000000000000000e+00 6.3994293164773968e+00 1.6963788877357235e+01 1.4427505247554686e+01 0 0 0
113 0 1 3.0000000000000000e+00 8.5344763511284381e+00 1.8049865731000047e+01 1.1128861591882732e+01 0 0 0
2129 0 3 -2.0000000000000000e+00 7.7893496934795365e+00 1.6873972817742096e+01 1.0990475328933092e+01 0 0 0
1433 0 3 -2.0000000000000000e+00 9.4400275109738701e+00 1.7741359493125614e+01 1.2340017851918290e+01 0 0 0
1665 0 3 -2.0000000000000000e+00 7.5005850505717291e+00 1.9198683264298399e+01 1.1492820765901063e+01 0 0 0
1641 0 3 -2.0000000000000000e+00 1.3656832522867605e+01 1.3473685699975729e+01 1.0729024326857822e+01 0 0 0
209 0 1 3.0000000000000000e+00 1.0291671708701429e+01 1.4821783921045210e+01 1.4656637662097811e+01 0 0 0
1181 0 3 -2.0000000000000000e+00 1.3682795581927616e+01 1.8139843489672241e+01 1.0180327335208796e+01 0 0 0
1913 0 3 -2.0000000000000000e+00 1.1523756103593392e+01 1.4234547385098331e+01 1.4808694263097802e+01 0 0 0
9 0 1 3.0000000000000000e+00 1.2616532877649821e+01 1.3603076374373765e+01 1.4158437351644547e+01 0 0 0
2089 0 3 -2.0000000000000000e+00 1.2572475052819872e+01 1.4068205255938267e+01 1.2794322659172183e+01 0 0 0
2889 0 4 5.0000000000000000e+00 1.2735170114263045e+01 1.5013935901826891e+01 1.1386545812401494e+01 0 0 0
2349 0 3 -2.0000000000000000e+00 1.3874792614956963e+01 1.3786761146794181e+01 1.4858065746464037e+01 0 0 0
873 0 3 -2.0000000000000000e+00 1.1219630547830526e+01 1.4346055475956790e+01 1.0720609648844338e+01 0 0 0
893 0 3 -2.0000000000000000e+00 1.4213091547402463e+01 1.5555443631303524e+01 1.1926736230589659e+01 0 0 0
773 0 2 1.0000000000000000e+00 1.5401330359729419e+01 1.6154781906506734e+01 1.0430028522463330e+01 0 0 0
2501 0 3 -2.0000000000000000e+00 1.5389197717914241e+01 2.0960415347878822e+01 1.1101292034586001e+01 0 0 0
1017 0 3 -2.0000000000000000e+00 1.0523877675255060e+01 1.6434427259663487e+01 1.4278737142900114e+01 0 0 0
2964 0 4 5.0000000000000000e+00 1.4621606343987306e+01 1.9517395895637591e+01 1.0519469403454313e+01 0 0 0
1161 0 3 -2.0000000000000000e+00 1.1709668837904808e+01 1.6354515959765784e+01 1.2164908585136420e+01 0 0 0
1240 0 3 -2.0000000000000000e+00 1.3293384806500415e+01 2.0318169087634111e+01 1.4614896600470955e+01 0 0 0
2649 0 4 5.0000000000000000e+00 1.0741564980615550e+01 1.7263490730191059e+01 1.2986743061597814e+01 0 0 0
2493 0 3 -2.0000000000000000e+00 1.1604703247861668e+01 1.8601638238363549e+01 1.3309025725458907e+01 0 0 0
1716 0 3 -2.0000000000000000e+00 1.3852771179459120e+01 1.9393281825493766e+01 1.2141861677684952e+01 0 0 0
1421 0 3 -2.0000000000000000e+00 1.3750724001920746e+01 1.8017097451524318e+01 1.4204896717424868e+01 0 0 0
2692 0 4 5.0000000000000000e+00 1.2912602711305722e+01 1.9675587975213574e+01 1.3365030382548962e+01 0 0 0
745 0 2 1.0000000000000000e+00 1.4340903244543606e+01 1.7223946773950360e+01 1.2546813981283659e+01 0 0 0
1956 0 3 -2.0000000000000000e+00 1.2203392431685767e+01 2.1000423188153604e+01 1.2553727046492043e+01 0 0 0
413 0 2 1.0000000000000000e+00 1.4903086787678246e+01 1.4167648900594124e+01 1.2875729052933483e+01 0 0 0
2997 0 4 5.0000000000000000e+00 2.0998002157826956e+01 1.6692895406465897e+01 1.2504139121479216e+01 0 0 0
1829 0 3 -2.0000000000000000e+00 1.8449650540061551e+01 1.8870033548243804e+01 1.0333299846893102e+01 0 0 0
2725 0 4 5.0000000000000000e+00 1.8416501668873948e+01 1.5402891766868894e+01 1.0663321211216559e+01 0 0 0
1967 0 3 -2.0000000000000000e+00 2.0122213033514122e+01 1.3602428468738239e+01 1.5042034235717576e+01 0 0 0
1685 0 3 -2.0000000000000000e+00 1.8241660412084698e+01 1.4319638066984057e+01 1.1788090448813161e+01 0 0 0
549 0 2 1.0000000000000000e+00 1.8618766055525775e+01 1.4882262139954568e+01 1.3597540410051568e+01 0 0 0
1997 0 3 -2.0000000000000000e+00 1.8160765133693602e+01 1.5951351200860499e+01 1.4990077433341272e+01 0 0 0
1141 0 3 -2.0000000000000000e+00 1.9636046199510211e+01 1.6180820545690906e+01 1.1726295299145210e+01 0 0 0
818 0 2 1.0000000000000000e+00 1.9074865867092853e+01 1.9216005111707151e+01 1.2424199766017640e+01 0 0 0
2221 0 3 -2.0000000000000000e+00 1.5991485498643343e+01 1.8663462243728606e+01 1.0565613382731220e+01 0 0 0
748 0 2 1.0000000000000000e+00 1.9344853942110987e+01 1.8620576409077692e+01 1.4705217352974598e+01 0 0 0
690 0 2 1.0000000000000000e+00 1.7535623118099451e+01 1.7380063899246778e+01 1.3848354485851859e+01 0 0 0
917 0 3 -2.0000000000000000e+00 2.0408395018556238e+01 1.7948003665308477e+01 1.3133416592515616e+01 0 0 0
245 0 2 1.0000000000000000e+00 1.7104721625734847e+01 1.9770577641875825e+01 1.3660900350578439e+01 0 0 0
1525 0 3 -2.0000000000000000e+00 1.7421656011462446e+01 1.6667852135363844e+01 1.0772281888472396e+01 0 0 0
141 0 1 3.0000000000000000e+00 1.7252109397044393e+01 1.8155765120114310e+01 1.1084278717103356e+01 0 0 0
1925 0 3 -2.0000000000000000e+00 1.7383099728709524e+01 1.8383799683176644e+01 1.2358374180478354e+01 0 0 0
2562 0 3 -2.0000000000000000e+00 1.9076965009423077e+01 2.0683276123804433e+01 1.3518176743983911e+01 0 0 0
1253 0 3 -2.0000000000000000e+00 1.7470056888009701e+01 1.9037925786234446e+01 1.5347827691517082e+01 0 0 0
287 0 2 1.0000000000000000e+00 2.0935525510627954e+01 1.9982106201905260e+01 1.3270538675357551e+01 0 0 0
325 0 2 1.0000000000000000e+00 1.8271037436617952e+01 2.0712169063069283e+01 1.5487099005691515e+01 0 0 0
1791 0 3 -2.0000000000000000e+00 2.0972165869549045e+01 1.5149378989220883e+01 1.3358236785749536e+01 0 0 0
293 0 2 1.0000000000000000e+00 2.1002753204950686e+01 1.6576879126178241e+01 1.6155149249609146e+01 0 0 0
2065 0 3 -2.0000000000000000e+00 7.8498285613248742e+00 9.2663625852165197e+00 1.5767286961149843e+01 0 0 0
560 0 2 1.0000000000000000e+00 5.4735873392440171e+00 6.1929840307516235e+00 2.0122107153887427e+01 0 1 0
1819 0 3 -2.0000000000000000e+00 5.1484991653161085e+00 1.1108364574393438e+01 1.7039530494446630e+01 1 0 0
793 0 2 1.0000000000000000e+00 7.4489167796675737e+00 7.5660983333404079e+00 2.0304472780038800e+01 0 0 0
1259 0 3 -2.0000000000000000e+00 6.2481242640048311e+00 7.7159925593879262e+00 1.6554914239216274e+01 1 0 0
2041 0 3 -2.0000000000000000e+00 9.0689673337614032e+00 6.4233790094220353e+00 2.0349157578533557e+01 0 0 0
161 0 1 3.0000000000000000e+00 6.0654450722630013e+00 6.7288194995303332e+00 1.7622735498092830e+01 0 0 0
1633 0 3 -2.0000000000000000e+00 6.5349350641372626e+00 6.9825924880107504e+00 1.8802795193807540e+01 0 0 0
827 0 2 1.0000000000000000e+00 6.2835501067629984e+00 9.5580078689293533e+00 1.7211057405781176e+01 1 0 0
331 0 2 1.0000000000000000e+00 9.7665429283545251e+00 1.0010581883763859e+01 1.9370227440176286e+01 1 0 0
1777 0 3 -2.0000000000000000e+00 8.5789969325427577e+00 1.1078357948455629e+01 2.0345883253090214e+01 0 0 0
139 0 1 3.0000000000000000e+00 5.1293636846060497e+00 1.2443479056759092e+01 1.6758850628660049e+01 1 0 0
1057 0 3 -2.0000000000000000e+00 8.4893187693187961e+00 1.2292603645555502e+01 1.6231771705180847e+01 0 0 0
1857 0 3 -2.0000000000000000e+00 6.2708942210055154e+00 1.3065860050132670e+01 1.6320697006062392e+01 0 0 0
289 0 2 1.0000000000000000e+00 8.9359217472746675e+00 1.1966638022215580e+01 1.8156527431095924e+01 0 0 0
2123 0 3 -2.0000000000000000e+00 4.8520169528203247e+00 9.8206694123277885e+00 1.9940196845303742e+01 1 0 0
1483 0 3 -2.0000000000000000e+00 4.7706833715115238e+00 1.3181569420665610e+01 1.8143609755300929e+01 1 0 0
941 0 3 -2.0000000000000000e+00 1.5348376864685898e+01 8.8042413295579838e+00 1.5710042826863091e+01 0 0 0
2697 0 4 5.0000000000000000e+00 1.2520670284351656e+01 5.8485168114511072e+00 1.5715120083086335e+01 0 0 0
1897 0 3 -2.0000000000000000e+00 1.3404364434579028e+01 1.0065913283451506e+01 2.0791962936338063e+01 0 0 0
2873 0 4 5.0000000000000000e+00 1.0466732237360564e+01 5.9837639017041164e+00 2.0606220736608808e+01 0 0 0
2353 0 3 -2.0000000000000000e+00 1.1525677182181134e+01 9.1757692699209432e+00 1.8152936754751277e+01 0 0 0
2416 0 3 -2.0000000000000000e+00 1.2427336118954949e+01 6.9615410613613937e+00 1.7144732090191475e+01 0 1 0
1201 0 3 -2.0000000000000000e+00 1.3508054637947270e+01 8.2828493554234228e+00 1.9055668681592948e+01 0 0 0
2641 0 4 5.0000000000000000e+00 1.2151557990681203e+01 7.7917532552917645e+00 1.8372116165051075e+01 0 0 0
1801 0 3 -2.0000000000000000e+00 1.1237397040201557e+01 7.0111223739180177e+00 1.9300570922772838e+01 0 0 0
2621 0 4 5.0000000000000000e+00 1.4411773925683876e+01 9.6518925396491895e+00 1.9600242014075494e+01 0 0 0
1129 0 3 -2.0000000000000000e+00 1.5455116450050918e+01 9.5059724431565638e+00 1.8205148787085136e+01 0 0 0