
                    DL_POLY Classic 1.9

                              Running on    8 nodes


 ************************************************************************************************************************
 ************************************************************************************************************************
 ************************************************************************************************************************
 ***************     TEST: LTP                                                                            ***************
 ************************************************************************************************************************
 ************************************************************************************************************************
 ************************************************************************************************************************


 SIMULATION CONTROL PARAMETERS


 leapfrog verlet integration selected

 simulation temperature           1.0000E+02

 simulation pressure (katm)       0.0000E+00

 Berendsen thermostat
 thermostat relaxation time       1.0000E-01

 selected number of timesteps      1000000

 equilibration period               100000

 data printing interval               1000

 data stacking interval                100

 statistics file interval             1000


 radial distribution functions on 
 g(r) collection interval             1000
 g(r) bin width                   1.0000E+00

 simulation timestep              5.0000E-04

 primary neighbour cut off        1.2000E+01

 real space cut off               1.2000E+01

 border width of Verlet shell     1.2000E+00

 real space cut off (vdw)         1.2000E+01

 Ewald sum  precision             1.0000E-05

 Electrostatics : Ewald sum  

 Ewald convergence parameter      2.3464E-01
 Ewald kmax1 kmax2 kmax3         9    9    9

 tolerance for SHAKE              1.0000E-05

 tolerance for Quaternions        1.0000E-05

 g(r) printing option on      

 user allocated job time (h)     10.0000

 job closure time        (s)    2000.000


SYSTEM SPECIFICATION

 energy units=electron volts 


 number of molecular types               4

 molecular species type                  1


 name of species:             Li                                      

 number of molecules                   300

 number of atoms/sites                   1


 atomic characteristics:

                      site     name          mass        charge    repeat    freeze

                         1     Li           6.94100     1.00000         1         0

 molecular species type                  2


 name of species:             O                                       

 number of molecules                  3600

 number of atoms/sites                   2


 atomic characteristics:

                      site     name          mass        charge    repeat    freeze

                         2     O_          14.99940     0.86000         1         0
                         3     O_-shl       1.00000    -2.86000         1         0

 number of core-shell units              1


 core-shell details:

                          index     index      parameter
                              1         2        65.0000         0.0000

 molecular species type                  3


 name of species:             P                                       

 number of molecules                   900

 number of atoms/sites                   1


 atomic characteristics:

                      site     name          mass        charge    repeat    freeze

                         4     P_          30.97376     5.00000         1         0

 molecular species type                  4


 name of species:             Ti                                      

 number of molecules                   600

 number of atoms/sites                   1


 atomic characteristics:

                      site     name          mass        charge    repeat    freeze

                         5     Ti          47.88000     4.00000         1         0


 number of specified pair potentials         4


                atom 1  atom 2      key                              parameters


                Li      O_-shl    buck     9.70819E+02  2.66331E-01  0.00000E+00
                O_-shl  O_-shl    buck     1.27592E+04  2.17390E-01  2.99751E+01
                P_      O_-shl    buck     8.97265E+02  3.57700E-01  0.00000E+00
                Ti      O_-shl    buck     6.64643E+03  2.43418E-01  0.00000E+00

  *** warning - undefined atom-atom interactions set to zero ***


adiabatic shell model in operation

 configuration file name: 

          test LiTiP04                                                                    


 selected image convention               3


 simulation cell vectors


                        42.555000    0.000000    0.000000
                       -21.277500   36.853711    0.000000
                         0.000000    0.000000   41.686000


 system volume            65376.5570734    


 total degrees of freedom                     16197.
 rotational degrees of freedom                    0.
 shell pseudo degrees of freedom              10800.


 sample of starting configuration

      i       x(i)        y(i)        z(i)       vx(i)       vy(i)       vz(i)


      1  0.0000E+00  0.0000E+00  1.0422E+01  6.9915E+00 -1.4902E+00 -3.6135E+00
    451  8.2131E-01  1.3636E+00 -3.9623E+00 -2.1621E+00 -1.0116E+00 -1.9560E+00
    901 -2.6639E+00  1.7228E+01  1.3407E+01 -7.3291E-01 -3.0732E+00  9.5002E-01
   1351  1.1945E+01 -1.3648E+01 -9.9331E+00 -1.6363E+00 -2.9160E+00  3.2009E+00
   1801  6.9194E+00  4.8843E+00  7.4361E+00 -3.3329E+00  1.0109E+00  7.5630E-01
   2251  3.6606E+00  8.7594E+00 -1.6883E+00  6.2754E+00 -1.6439E+00 -1.4571E+00
   2701  2.2183E+01 -1.3494E+01  1.5681E+01 -2.6807E+00 -2.7975E-01 -6.6722E-01
   3151  1.7617E+01 -6.3025E+00 -1.2207E+01  2.2793E+00  9.6451E-01 -2.1415E+00
   3601  1.1861E+01  1.3494E+01  5.1621E+00  2.4197E+00  2.1500E+00 -1.6652E+00
   4051  2.6354E+01 -1.3378E+01  1.6881E+01 -3.7478E-01 -1.7899E+00 -7.8934E-01
   4501 -1.5430E+01 -4.8843E+00 -7.4361E+00  5.0560E+00  2.7001E+00 -6.8624E-01
   4951 -1.7843E+01  8.4641E+00  1.0910E+01 -1.2014E+00 -1.0102E+00 -3.1807E+00
   5401 -5.8471E+00 -1.7228E+01 -1.3407E+01 -1.2620E+00 -2.6033E-01  1.2674E+00
   5851 -1.3361E+01 -5.9821E+00  1.9155E+01  6.9764E+00 -5.3144E-01  9.4789E-01
   6301 -3.3504E+00  1.2474E+00 -5.1621E+00  3.5463E+00  1.7482E+00 -6.5165E-01
   6751 -1.2172E+01  1.5810E+01  8.6359E+00  1.3046E+00  1.4758E-01 -4.2056E+00
   7201 -9.0514E-01 -8.6181E+00 -1.5681E+01 -3.4753E-01 -3.4609E+00  1.7534E+00
   7651  1.0982E+01 -4.9138E+00  1.2158E+01  1.3314E+00 -2.5811E+00  3.3836E-01
   8101 -1.4551E+01  9.8277E+00 -8.6846E+00 -2.9728E+00 -1.0659E+00  2.1829E-01
   8551  8.5110E+00  9.8277E+00  2.0331E+01  5.0561E-01  2.0346E-02 -2.1456E+00


long range correction for: vdw energy    -0.720209E+01
                         : vdw pressure  -0.348386E+00

 time elapsed since job start =           0.165 seconds

 ------------------------------------------------------------------------------------------------------------------------

     step     eng_tot    temp_tot     eng_cfg     eng_vdw     eng_cou     eng_bnd     eng_ang     eng_dih     eng_tet
 time          eng_pv    temp_rot     vir_cfg     vir_vdw     vir_cou     vir_bnd     vir_ang     vir_con     vir_tet
 cpu time      volume    temp_shl     eng_shl     vir_shl       alpha        beta       gamma     vir_pmf       press

 ------------------------------------------------------------------------------------------------------------------------
        1 -2.4619E+05  5.4677E+02 -2.4657E+05  5.4368E+04 -3.0094E+05  0.0000E+00  0.0000E+00  0.0000E+00  0.0000E+00
   0.500f -2.5505E+05  0.0000E+00  2.7345E+04 -2.7391E+05  3.0126E+05  0.0000E+00  0.0000E+00  0.0000E+00  0.0000E+00
   0.360s  6.5377E+04  2.6610E+03  3.5100E-01  7.0200E-01  9.0000E+01  9.0000E+01  1.2000E+02  0.0000E+00 -2.1431E+02

  rolling -2.4619E+05  5.4677E+02 -2.4657E+05  5.4368E+04 -3.0094E+05  0.0000E+00  0.0000E+00  0.0000E+00  0.0000E+00
 averages -2.5505E+05  0.0000E+00  2.7345E+04 -2.7391E+05  3.0126E+05  0.0000E+00  0.0000E+00  0.0000E+00  0.0000E+00
           6.5377E+04  2.6610E+03  3.5100E-01  7.0200E-01  9.0000E+01  9.0000E+01  1.2000E+02  0.0000E+00 -2.1431E+02
 ------------------------------------------------------------------------------------------------------------------------
     1000 -2.5040E+05  1.8609E+02 -2.5053E+05  6.5595E+04 -3.2024E+05  0.0000E+00  0.0000E+00  0.0000E+00  0.0000E+00
 500.000f -2.5667E+05  0.0000E+00  1.9074E+04 -3.0965E+05  3.2049E+05  0.0000E+00  0.0000E+00  0.0000E+00  0.0000E+00
   1.082m  6.5377E+04  1.8704E+02  4.1173E+03  8.2347E+03  9.0000E+01  9.0000E+01  1.2000E+02  0.0000E+00 -1.5168E+02

  rolling -2.5036E+05  3.8577E+02 -2.5063E+05  6.3929E+04 -3.1730E+05  0.0000E+00  0.0000E+00  0.0000E+00  0.0000E+00
 averages -2.5602E+05  0.0000E+00  1.7523E+04 -3.0549E+05  3.1754E+05  0.0000E+00  0.0000E+00  0.0000E+00  0.0000E+00
           6.5377E+04  4.9504E+02  2.7378E+03  5.4755E+03  9.0000E+01  9.0000E+01  1.2000E+02  0.0000E+00 -1.3693E+02
 ------------------------------------------------------------------------------------------------------------------------
     2000 -2.5075E+05  1.2803E+02 -2.5084E+05  6.3676E+04 -3.1683E+05  0.0000E+00  0.0000E+00  0.0000E+00  0.0000E+00
   1.000p -2.5638E+05  0.0000E+00  1.7072E+04 -3.0465E+05  3.1709E+05  0.0000E+00  0.0000E+00  0.0000E+00  0.0000E+00
   2.159m  6.5377E+04  1.3609E+02  2.3175E+03  4.6350E+03  9.0000E+01  9.0000E+01  1.2000E+02  0.0000E+00 -1.3619E+02

  rolling -2.5074E+05  1.2268E+02 -2.5083E+05  6.3725E+04 -3.1722E+05  0.0000E+00  0.0000E+00  0.0000E+00  0.0000E+00
 averages -2.5657E+05  0.0000E+00  1.7663E+04 -3.0517E+05  3.1749E+05  0.0000E+00  0.0000E+00  0.0000E+00  0.0000E+00
           6.5377E+04  1.5674E+02  2.6701E+03  5.3403E+03  9.0000E+01  9.0000E+01  1.2000E+02  0.0000E+00 -1.4102E+02
 ------------------------------------------------------------------------------------------------------------------------
     3000 -2.5078E+05  1.1094E+02 -2.5085E+05  6.3914E+04 -3.1783E+05  0.0000E+00  0.0000E+00  0.0000E+00  0.0000E+00
   1.500p -2.5710E+05  0.0000E+00  1.9133E+04 -3.0509E+05  3.1810E+05  0.0000E+00  0.0000E+00  0.0000E+00  0.0000E+00
   3.237m  6.5377E+04  1.3245E+02  3.0640E+03  6.1280E+03  9.0000E+01  9.0000E+01  1.2000E+02  0.0000E+00 -1.5301E+02

  rolling -2.5077E+05  1.0276E+02 -2.5085E+05  6.3840E+04 -3.1732E+05  0.0000E+00  0.0000E+00  0.0000E+00  0.0000E+00
 averages -2.5665E+05  0.0000E+00  1.7781E+04 -3.0507E+05  3.1758E+05  0.0000E+00  0.0000E+00  0.0000E+00  0.0000E+00
           6.5377E+04  1.2697E+02  2.6348E+03  5.2695E+03  9.0000E+01  9.0000E+01  1.2000E+02  0.0000E+00 -1.4220E+02
 ------------------------------------------------------------------------------------------------------------------------
     4000 -2.5078E+05  1.2029E+02 -2.5086E+05  6.3400E+04 -3.1652E+05  0.0000E+00  0.0000E+00  0.0000E+00  0.0000E+00
   2.000p -2.5664E+05  0.0000E+00  1.7754E+04 -3.0355E+05  3.1679E+05  0.0000E+00  0.0000E+00  0.0000E+00  0.0000E+00
   4.315m  6.5377E+04  1.4176E+02  2.2588E+03  4.5177E+03  9.0000E+01  9.0000E+01  1.2000E+02  0.0000E+00 -1.4178E+02

  rolling -2.5078E+05  1.0016E+02 -2.5085E+05  6.3346E+04 -3.1689E+05  0.0000E+00  0.0000E+00  0.0000E+00  0.0000E+00
 averages -2.5711E+05  0.0000E+00  1.9127E+04 -3.0341E+05  3.1715E+05  0.0000E+00  0.0000E+00  0.0000E+00  0.0000E+00
           6.5377E+04  1.2360E+02  2.6962E+03  5.3923E+03  9.0000E+01  9.0000E+01  1.2000E+02  0.0000E+00 -1.5308E+02
 ------------------------------------------------------------------------------------------------------------------------
     5000 -2.5078E+05  9.7986E+01 -2.5085E+05  6.3404E+04 -3.1687E+05  0.0000E+00  0.0000E+00  0.0000E+00  0.0000E+00
   2.500p -2.5688E+05  0.0000E+00  1.8457E+04 -3.0393E+05  3.1715E+05  0.0000E+00  0.0000E+00  0.0000E+00  0.0000E+00
   5.392m  6.5377E+04  1.0593E+02  2.6219E+03  5.2438E+03  9.0000E+01  9.0000E+01  1.2000E+02  0.0000E+00 -1.4770E+02

  rolling -2.5078E+05  9.8968E+01 -2.5085E+05  6.3700E+04 -3.1717E+05  0.0000E+00  0.0000E+00  0.0000E+00  0.0000E+00
 averages -2.5683E+05  0.0000E+00  1.8290E+04 -3.0438E+05  3.1743E+05  0.0000E+00  0.0000E+00  0.0000E+00  0.0000E+00
           6.5377E+04  1.2176E+02  2.6222E+03  5.2444E+03  9.0000E+01  9.0000E+01  1.2000E+02  0.0000E+00 -1.4634E+02
 ------------------------------------------------------------------------------------------------------------------------
     6000 -2.5078E+05  1.2358E+02 -2.5086E+05  6.3265E+04 -3.1664E+05  0.0000E+00  0.0000E+00  0.0000E+00  0.0000E+00
   3.000p -2.5700E+05  0.0000E+00  1.8840E+04 -3.0308E+05  3.1689E+05  0.0000E+00  0.0000E+00  0.0000E+00  0.0000E+00
   6.471m  6.5377E+04  1.3667E+02  2.5137E+03  5.0274E+03  9.0000E+01  9.0000E+01  1.2000E+02  0.0000E+00 -1.5050E+02

  rolling -2.5078E+05  1.0194E+02 -2.5085E+05  6.3595E+04 -3.1709E+05  0.0000E+00  0.0000E+00  0.0000E+00  0.0000E+00
 averages -2.5675E+05  0.0000E+00  1.8052E+04 -3.0459E+05  3.1734E+05  0.0000E+00  0.0000E+00  0.0000E+00  0.0000E+00
           6.5377E+04  1.2137E+02  2.6499E+03  5.2998E+03  9.0000E+01  9.0000E+01  1.2000E+02  0.0000E+00 -1.4439E+02
 ------------------------------------------------------------------------------------------------------------------------
     7000 -2.5078E+05  1.0776E+02 -2.5085E+05  6.3787E+04 -3.1756E+05  0.0000E+00  0.0000E+00  0.0000E+00  0.0000E+00
   3.500p -2.5690E+05  0.0000E+00  1.8530E+04 -3.0513E+05  3.1782E+05  0.0000E+00  0.0000E+00  0.0000E+00  0.0000E+00
   7.536m  6.5377E+04  1.2837E+02  2.9179E+03  5.8358E+03  9.0000E+01  9.0000E+01  1.2000E+02  0.0000E+00 -1.4818E+02

  rolling -2.5078E+05  9.9246E+01 -2.5085E+05  6.3916E+04 -3.1740E+05  0.0000E+00  0.0000E+00  0.0000E+00  0.0000E+00
 averages -2.5657E+05  0.0000E+00  1.7507E+04 -3.0543E+05  3.1766E+05  0.0000E+00  0.0000E+00  0.0000E+00  0.0000E+00
           6.5377E+04  1.2116E+02  2.6381E+03  5.2762E+03  9.0000E+01  9.0000E+01  1.2000E+02  0.0000E+00 -1.4003E+02
 ------------------------------------------------------------------------------------------------------------------------
 ------------------------------------------------------------------------------------------------------------------------

     step     eng_tot    temp_tot     eng_cfg     eng_vdw     eng_cou     eng_bnd     eng_ang     eng_dih     eng_tet
 time          eng_pv    temp_rot     vir_cfg     vir_vdw     vir_cou     vir_bnd     vir_ang     vir_con     vir_tet
 cpu time      volume    temp_shl     eng_shl     vir_shl       alpha        beta       gamma     vir_pmf       press

 ------------------------------------------------------------------------------------------------------------------------
     8000 -2.5078E+05  1.0676E+02 -2.5085E+05  6.4039E+04 -3.1767E+05  0.0000E+00  0.0000E+00  0.0000E+00  0.0000E+00
   4.000p -2.5647E+05  0.0000E+00  1.7230E+04 -3.0625E+05  3.1792E+05  0.0000E+00  0.0000E+00  0.0000E+00  0.0000E+00
   8.598m  6.5377E+04  1.2824E+02  2.7805E+03  5.5610E+03  9.0000E+01  9.0000E+01  1.2000E+02  0.0000E+00 -1.3771E+02

  rolling -2.5078E+05  9.9609E+01 -2.5085E+05  6.3593E+04 -3.1714E+05  0.0000E+00  0.0000E+00  0.0000E+00  0.0000E+00
 averages -2.5682E+05  0.0000E+00  1.8263E+04 -3.0454E+05  3.1740E+05  0.0000E+00  0.0000E+00  0.0000E+00  0.0000E+00
           6.5377E+04  1.2106E+02  2.7016E+03  5.4032E+03  9.0000E+01  9.0000E+01  1.2000E+02  0.0000E+00 -1.4612E+02
 ------------------------------------------------------------------------------------------------------------------------
     9000 -2.5078E+05  1.0536E+02 -2.5085E+05  6.4019E+04 -3.1752E+05  0.0000E+00  0.0000E+00  0.0000E+00  0.0000E+00
   4.500p -2.5651E+05  0.0000E+00  1.7331E+04 -3.0575E+05  3.1778E+05  0.0000E+00  0.0000E+00  0.0000E+00  0.0000E+00
   9.659m  6.5377E+04  1.1650E+02  2.6491E+03  5.2981E+03  9.0000E+01  9.0000E+01  1.2000E+02  0.0000E+00 -1.3854E+02

  rolling -2.5078E+05  1.0155E+02 -2.5085E+05  6.3767E+04 -3.1726E+05  0.0000E+00  0.0000E+00  0.0000E+00  0.0000E+00
 averages -2.5676E+05  0.0000E+00  1.8081E+04 -3.0473E+05  3.1752E+05  0.0000E+00  0.0000E+00  0.0000E+00  0.0000E+00
           6.5377E+04  1.2161E+02  2.6482E+03  5.2964E+03  9.0000E+01  9.0000E+01  1.2000E+02  0.0000E+00 -1.4463E+02
 ------------------------------------------------------------------------------------------------------------------------
    10000 -2.5078E+05  1.1137E+02 -2.5085E+05  6.3430E+04 -3.1690E+05  0.0000E+00  0.0000E+00  0.0000E+00  0.0000E+00
   5.000p -2.5692E+05  0.0000E+00  1.8592E+04 -3.0377E+05  3.1714E+05  0.0000E+00  0.0000E+00  0.0000E+00  0.0000E+00
  10.720m  6.5377E+04  1.2755E+02  2.6127E+03  5.2254E+03  9.0000E+01  9.0000E+01  1.2000E+02  0.0000E+00 -1.4864E+02

  rolling -2.5078E+05  9.8730E+01 -2.5085E+05  6.3425E+04 -3.1693E+05  0.0000E+00  0.0000E+00  0.0000E+00  0.0000E+00
 averages -2.5699E+05  0.0000E+00  1.8773E+04 -3.0372E+05  3.1718E+05  0.0000E+00  0.0000E+00  0.0000E+00  0.0000E+00
           6.5377E+04  1.2131E+02  2.6573E+03  5.3147E+03  9.0000E+01  9.0000E+01  1.2000E+02  0.0000E+00 -1.5024E+02
 ------------------------------------------------------------------------------------------------------------------------
    11000 -2.5078E+05  1.0249E+02 -2.5085E+05  6.3813E+04 -3.1723E+05  0.0000E+00  0.0000E+00  0.0000E+00  0.0000E+00
   5.500p -2.5676E+05  0.0000E+00  1.8101E+04 -3.0453E+05  3.1749E+05  0.0000E+00  0.0000E+00  0.0000E+00  0.0000E+00
  11.781m  6.5377E+04  1.2245E+02  2.5700E+03  5.1401E+03  9.0000E+01  9.0000E+01  1.2000E+02  0.0000E+00 -1.4478E+02

  rolling -2.5078E+05  1.0059E+02 -2.5085E+05  6.3702E+04 -3.1717E+05  0.0000E+00  0.0000E+00  0.0000E+00  0.0000E+00
 averages -2.5677E+05  0.0000E+00  1.8127E+04 -3.0454E+05  3.1742E+05  0.0000E+00  0.0000E+00  0.0000E+00  0.0000E+00
           6.5377E+04  1.2066E+02  2.6218E+03  5.2437E+03  9.0000E+01  9.0000E+01  1.2000E+02  0.0000E+00 -1.4501E+02
 ------------------------------------------------------------------------------------------------------------------------
    12000 -2.5078E+05  1.0288E+02 -2.5085E+05  6.3159E+04 -3.1676E+05  0.0000E+00  0.0000E+00  0.0000E+00  0.0000E+00
   6.000p -2.5726E+05  0.0000E+00  1.9598E+04 -3.0292E+05  3.1702E+05  0.0000E+00  0.0000E+00  0.0000E+00  0.0000E+00
  12.843m  6.5377E+04  1.2459E+02  2.7483E+03  5.4967E+03  9.0000E+01  9.0000E+01  1.2000E+02  0.0000E+00 -1.5685E+02

  rolling -2.5078E+05  1.0038E+02 -2.5085E+05  6.3692E+04 -3.1719E+05  0.0000E+00  0.0000E+00  0.0000E+00  0.0000E+00
 averages -2.5669E+05  0.0000E+00  1.7876E+04 -3.0488E+05  3.1745E+05  0.0000E+00  0.0000E+00  0.0000E+00  0.0000E+00
           6.5377E+04  1.2074E+02  2.6542E+03  5.3085E+03  9.0000E+01  9.0000E+01  1.2000E+02  0.0000E+00 -1.4299E+02
 ------------------------------------------------------------------------------------------------------------------------
    13000 -2.5078E+05  1.0335E+02 -2.5085E+05  6.3904E+04 -3.1733E+05  0.0000E+00  0.0000E+00  0.0000E+00  0.0000E+00
   6.500p -2.5663E+05  0.0000E+00  1.7697E+04 -3.0505E+05  3.1758E+05  0.0000E+00  0.0000E+00  0.0000E+00  0.0000E+00
  13.904m  6.5377E+04  1.2001E+02  2.5806E+03  5.1612E+03  9.0000E+01  9.0000E+01  1.2000E+02  0.0000E+00 -1.4151E+02

  rolling -2.5078E+05  9.9177E+01 -2.5085E+05  6.3835E+04 -3.1736E+05  0.0000E+00  0.0000E+00  0.0000E+00  0.0000E+00
 averages -2.5666E+05  0.0000E+00  1.7792E+04 -3.0517E+05  3.1761E+05  0.0000E+00  0.0000E+00  0.0000E+00  0.0000E+00
           6.5377E+04  1.2066E+02  2.6778E+03  5.3557E+03  9.0000E+01  9.0000E+01  1.2000E+02  0.0000E+00 -1.4232E+02
 ------------------------------------------------------------------------------------------------------------------------
    14000 -2.5078E+05  9.5697E+01 -2.5084E+05  6.3653E+04 -3.1723E+05  0.0000E+00  0.0000E+00  0.0000E+00  0.0000E+00
   7.000p -2.5661E+05  0.0000E+00  1.7619E+04 -3.0533E+05  3.1748E+05  0.0000E+00  0.0000E+00  0.0000E+00  0.0000E+00
  14.965m  6.5377E+04  1.2294E+02  2.7329E+03  5.4659E+03  9.0000E+01  9.0000E+01  1.2000E+02  0.0000E+00 -1.4097E+02

  rolling -2.5078E+05  1.0048E+02 -2.5085E+05  6.3593E+04 -3.1713E+05  0.0000E+00  0.0000E+00  0.0000E+00  0.0000E+00
 averages -2.5687E+05  0.0000E+00  1.8426E+04 -3.0435E+05  3.1739E+05  0.0000E+00  0.0000E+00  0.0000E+00  0.0000E+00
           6.5377E+04  1.2038E+02  2.6938E+03  5.3876E+03  9.0000E+01  9.0000E+01  1.2000E+02  0.0000E+00 -1.4743E+02
 ------------------------------------------------------------------------------------------------------------------------
    15000 -2.5078E+05  1.0037E+02 -2.5085E+05  6.4059E+04 -3.1745E+05  0.0000E+00  0.0000E+00  0.0000E+00  0.0000E+00
   7.500p -2.5634E+05  0.0000E+00  1.6825E+04 -3.0594E+05  3.1768E+05  0.0000E+00  0.0000E+00  0.0000E+00  0.0000E+00
  16.027m  6.5377E+04  1.2293E+02  2.5416E+03  5.0831E+03  9.0000E+01  9.0000E+01  1.2000E+02  0.0000E+00 -1.3452E+02

  rolling -2.5078E+05  1.0005E+02 -2.5085E+05  6.3664E+04 -3.1715E+05  0.0000E+00  0.0000E+00  0.0000E+00  0.0000E+00
 averages -2.5680E+05  0.0000E+00  1.8197E+04 -3.0447E+05  3.1740E+05  0.0000E+00  0.0000E+00  0.0000E+00  0.0000E+00
           6.5377E+04  1.2064E+02  2.6370E+03  5.2740E+03  9.0000E+01  9.0000E+01  1.2000E+02  0.0000E+00 -1.4558E+02
 ------------------------------------------------------------------------------------------------------------------------
 ------------------------------------------------------------------------------------------------------------------------

     step     eng_tot    temp_tot     eng_cfg     eng_vdw     eng_cou     eng_bnd     eng_ang     eng_dih     eng_tet
 time          eng_pv    temp_rot     vir_cfg     vir_vdw     vir_cou     vir_bnd     vir_ang     vir_con     vir_tet
 cpu time      volume    temp_shl     eng_shl     vir_shl       alpha        beta       gamma     vir_pmf       press

 ------------------------------------------------------------------------------------------------------------------------
    16000 -2.5078E+05  9.4718E+01 -2.5084E+05  6.3230E+04 -3.1695E+05  0.0000E+00  0.0000E+00  0.0000E+00  0.0000E+00
   8.000p -2.5727E+05  0.0000E+00  1.9622E+04 -3.0332E+05  3.1720E+05  0.0000E+00  0.0000E+00  0.0000E+00  0.0000E+00
  17.088m  6.5377E+04  1.1702E+02  2.8724E+03  5.7447E+03  9.0000E+01  9.0000E+01  1.2000E+02  0.0000E+00 -1.5713E+02

  rolling -2.5078E+05  9.9391E+01 -2.5085E+05  6.3595E+04 -3.1707E+05  0.0000E+00  0.0000E+00  0.0000E+00  0.0000E+00
 averages -2.5682E+05  0.0000E+00  1.8259E+04 -3.0431E+05  3.1731E+05  0.0000E+00  0.0000E+00  0.0000E+00  0.0000E+00
           6.5377E+04  1.2006E+02  2.6254E+03  5.2508E+03  9.0000E+01  9.0000E+01  1.2000E+02  0.0000E+00 -1.4609E+02
 ------------------------------------------------------------------------------------------------------------------------
    17000 -2.5078E+05  9.4622E+01 -2.5084E+05  6.3765E+04 -3.1715E+05  0.0000E+00  0.0000E+00  0.0000E+00  0.0000E+00
   8.500p -2.5677E+05  0.0000E+00  1.8127E+04 -3.0435E+05  3.1740E+05  0.0000E+00  0.0000E+00  0.0000E+00  0.0000E+00
  18.149m  6.5377E+04  1.1890E+02  2.5399E+03  5.0798E+03  9.0000E+01  9.0000E+01  1.2000E+02  0.0000E+00 -1.4507E+02

  rolling -2.5078E+05  1.0028E+02 -2.5085E+05  6.3619E+04 -3.1712E+05  0.0000E+00  0.0000E+00  0.0000E+00  0.0000E+00
 averages -2.5683E+05  0.0000E+00  1.8310E+04 -3.0437E+05  3.1737E+05  0.0000E+00  0.0000E+00  0.0000E+00  0.0000E+00
           6.5377E+04  1.1995E+02  2.6539E+03  5.3078E+03  9.0000E+01  9.0000E+01  1.2000E+02  0.0000E+00 -1.4649E+02
 ------------------------------------------------------------------------------------------------------------------------
    18000 -2.5078E+05  9.8165E+01 -2.5085E+05  6.3494E+04 -3.1711E+05  0.0000E+00  0.0000E+00  0.0000E+00  0.0000E+00
   9.000p -2.5697E+05  0.0000E+00  1.8719E+04 -3.0419E+05  3.1736E+05  0.0000E+00  0.0000E+00  0.0000E+00  0.0000E+00
  19.211m  6.5377E+04  1.1905E+02  2.7726E+03  5.5452E+03  9.0000E+01  9.0000E+01  1.2000E+02  0.0000E+00 -1.4981E+02

  rolling -2.5078E+05  9.9914E+01 -2.5085E+05  6.3749E+04 -3.1727E+05  0.0000E+00  0.0000E+00  0.0000E+00  0.0000E+00
 averages -2.5672E+05  0.0000E+00  1.7963E+04 -3.0491E+05  3.1752E+05  0.0000E+00  0.0000E+00  0.0000E+00  0.0000E+00
           6.5377E+04  1.1981E+02  2.6771E+03  5.3542E+03  9.0000E+01  9.0000E+01  1.2000E+02  0.0000E+00 -1.4370E+02
 ------------------------------------------------------------------------------------------------------------------------
    19000 -2.5078E+05  9.4885E+01 -2.5084E+05  6.3985E+04 -3.1730E+05  0.0000E+00  0.0000E+00  0.0000E+00  0.0000E+00
   9.500p -2.5642E+05  0.0000E+00  1.7078E+04 -3.0541E+05  3.1755E+05  0.0000E+00  0.0000E+00  0.0000E+00  0.0000E+00
  20.272m  6.5377E+04  1.1881E+02  2.4731E+03  4.9461E+03  9.0000E+01  9.0000E+01  1.2000E+02  0.0000E+00 -1.3662E+02

  rolling -2.5078E+05  9.9603E+01 -2.5085E+05  6.3740E+04 -3.1727E+05  0.0000E+00  0.0000E+00  0.0000E+00  0.0000E+00
 averages -2.5671E+05  0.0000E+00  1.7941E+04 -3.0494E+05  3.1752E+05  0.0000E+00  0.0000E+00  0.0000E+00  0.0000E+00
           6.5377E+04  1.1946E+02  2.6837E+03  5.3674E+03  9.0000E+01  9.0000E+01  1.2000E+02  0.0000E+00 -1.4352E+02
 ------------------------------------------------------------------------------------------------------------------------
    20000 -2.5078E+05  9.7504E+01 -2.5084E+05  6.3620E+04 -3.1722E+05  0.0000E+00  0.0000E+00  0.0000E+00  0.0000E+00
  10.000p -2.5681E+05  0.0000E+00  1.8248E+04 -3.0473E+05  3.1746E+05  0.0000E+00  0.0000E+00  0.0000E+00  0.0000E+00
  21.333m  6.5377E+04  1.1627E+02  2.7574E+03  5.5148E+03  9.0000E+01  9.0000E+01  1.2000E+02  0.0000E+00 -1.4602E+02

  rolling -2.5078E+05  1.0044E+02 -2.5085E+05  6.3686E+04 -3.1719E+05  0.0000E+00  0.0000E+00  0.0000E+00  0.0000E+00
 averages -2.5678E+05  0.0000E+00  1.8151E+04 -3.0459E+05  3.1743E+05  0.0000E+00  0.0000E+00  0.0000E+00  0.0000E+00
           6.5377E+04  1.1930E+02  2.6529E+03  5.3058E+03  9.0000E+01  9.0000E+01  1.2000E+02  0.0000E+00 -1.4521E+02
 ------------------------------------------------------------------------------------------------------------------------
    21000 -2.5078E+05  1.0084E+02 -2.5085E+05  6.3851E+04 -3.1726E+05  0.0000E+00  0.0000E+00  0.0000E+00  0.0000E+00
  10.500p -2.5663E+05  0.0000E+00  1.7715E+04 -3.0492E+05  3.1751E+05  0.0000E+00  0.0000E+00  0.0000E+00  0.0000E+00
  22.395m  6.5377E+04  1.2034E+02  2.5626E+03  5.1252E+03  9.0000E+01  9.0000E+01  1.2000E+02  0.0000E+00 -1.4168E+02

  rolling -2.5078E+05  9.9925E+01 -2.5085E+05  6.3571E+04 -3.1706E+05  0.0000E+00  0.0000E+00  0.0000E+00  0.0000E+00
 averages -2.5685E+05  0.0000E+00  1.8355E+04 -3.0424E+05  3.1731E+05  0.0000E+00  0.0000E+00  0.0000E+00  0.0000E+00
           6.5377E+04  1.1922E+02  2.6441E+03  5.2882E+03  9.0000E+01  9.0000E+01  1.2000E+02  0.0000E+00 -1.4685E+02
 ------------------------------------------------------------------------------------------------------------------------
    22000 -2.5078E+05  9.8213E+01 -2.5085E+05  6.3305E+04 -3.1694E+05  0.0000E+00  0.0000E+00  0.0000E+00  0.0000E+00
  11.000p -2.5722E+05  0.0000E+00  1.9460E+04 -3.0332E+05  3.1719E+05  0.0000E+00  0.0000E+00  0.0000E+00  0.0000E+00
  23.456m  6.5377E+04  1.1969E+02  2.7914E+03  5.5827E+03  9.0000E+01  9.0000E+01  1.2000E+02  0.0000E+00 -1.5578E+02

  rolling -2.5078E+05  9.9637E+01 -2.5085E+05  6.3688E+04 -3.1716E+05  0.0000E+00  0.0000E+00  0.0000E+00  0.0000E+00
 averages -2.5678E+05  0.0000E+00  1.8135E+04 -3.0453E+05  3.1741E+05  0.0000E+00  0.0000E+00  0.0000E+00  0.0000E+00
           6.5377E+04  1.1887E+02  2.6291E+03  5.2581E+03  9.0000E+01  9.0000E+01  1.2000E+02  0.0000E+00 -1.4509E+02
 ------------------------------------------------------------------------------------------------------------------------
    23000 -2.5078E+05  9.9601E+01 -2.5085E+05  6.3645E+04 -3.1707E+05  0.0000E+00  0.0000E+00  0.0000E+00  0.0000E+00
  11.500p -2.5677E+05  0.0000E+00  1.8104E+04 -3.0438E+05  3.1732E+05  0.0000E+00  0.0000E+00  0.0000E+00  0.0000E+00
  24.517m  6.5377E+04  1.1679E+02  2.5824E+03  5.1649E+03  9.0000E+01  9.0000E+01  1.2000E+02  0.0000E+00 -1.4484E+02

  rolling -2.5078E+05  1.0052E+02 -2.5085E+05  6.3590E+04 -3.1712E+05  0.0000E+00  0.0000E+00  0.0000E+00  0.0000E+00
 averages -2.5686E+05  0.0000E+00  1.8400E+04 -3.0434E+05  3.1737E+05  0.0000E+00  0.0000E+00  0.0000E+00  0.0000E+00
           6.5377E+04  1.1859E+02  2.6867E+03  5.3735E+03  9.0000E+01  9.0000E+01  1.2000E+02  0.0000E+00 -1.4721E+02
 ------------------------------------------------------------------------------------------------------------------------
 ------------------------------------------------------------------------------------------------------------------------

     step     eng_tot    temp_tot     eng_cfg     eng_vdw     eng_cou     eng_bnd     eng_ang     eng_dih     eng_tet
 time          eng_pv    temp_rot     vir_cfg     vir_vdw     vir_cou     vir_bnd     vir_ang     vir_con     vir_tet
 cpu time      volume    temp_shl     eng_shl     vir_shl       alpha        beta       gamma     vir_pmf       press

 ------------------------------------------------------------------------------------------------------------------------
    24000 -2.5078E+05  9.8427E+01 -2.5084E+05  6.3739E+04 -3.1728E+05  0.0000E+00  0.0000E+00  0.0000E+00  0.0000E+00
  12.000p -2.5663E+05  0.0000E+00  1.7685E+04 -3.0523E+05  3.1752E+05  0.0000E+00  0.0000E+00  0.0000E+00  0.0000E+00
  25.579m  6.5377E+04  1.1661E+02  2.6958E+03  5.3916E+03  9.0000E+01  9.0000E+01  1.2000E+02  0.0000E+00 -1.4147E+02

  rolling -2.5078E+05  9.9682E+01 -2.5085E+05  6.3782E+04 -3.1730E+05  0.0000E+00  0.0000E+00  0.0000E+00  0.0000E+00
 averages -2.5671E+05  0.0000E+00  1.7954E+04 -3.0494E+05  3.1755E+05  0.0000E+00  0.0000E+00  0.0000E+00  0.0000E+00
           6.5377E+04  1.1831E+02  2.6740E+03  5.3479E+03  9.0000E+01  9.0000E+01  1.2000E+02  0.0000E+00 -1.4362E+02
 ------------------------------------------------------------------------------------------------------------------------
    25000 -2.5078E+05  1.0024E+02 -2.5085E+05  6.3845E+04 -3.1729E+05  0.0000E+00  0.0000E+00  0.0000E+00  0.0000E+00
  12.500p -2.5652E+05  0.0000E+00  1.7367E+04 -3.0536E+05  3.1753E+05  0.0000E+00  0.0000E+00  0.0000E+00  0.0000E+00
  26.640m  6.5377E+04  1.1794E+02  2.6000E+03  5.2001E+03  9.0000E+01  9.0000E+01  1.2000E+02  0.0000E+00 -1.3889E+02

  rolling -2.5078E+05  9.9995E+01 -2.5085E+05  6.3683E+04 -3.1720E+05  0.0000E+00  0.0000E+00  0.0000E+00  0.0000E+00
 averages -2.5672E+05  0.0000E+00  1.7979E+04 -3.0480E+05  3.1744E+05  0.0000E+00  0.0000E+00  0.0000E+00  0.0000E+00
           6.5377E+04  1.1804E+02  2.6672E+03  5.3344E+03  9.0000E+01  9.0000E+01  1.2000E+02  0.0000E+00 -1.4382E+02
 ------------------------------------------------------------------------------------------------------------------------
    26000 -2.5078E+05  1.0237E+02 -2.5085E+05  6.3618E+04 -3.1720E+05  0.0000E+00  0.0000E+00  0.0000E+00  0.0000E+00
  13.000p -2.5692E+05  0.0000E+00  1.8578E+04 -3.0432E+05  3.1744E+05  0.0000E+00  0.0000E+00  0.0000E+00  0.0000E+00
  27.702m  6.5377E+04  1.1785E+02  2.7305E+03  5.4609E+03  9.0000E+01  9.0000E+01  1.2000E+02  0.0000E+00 -1.4863E+02

  rolling -2.5078E+05  1.0070E+02 -2.5085E+05  6.3736E+04 -3.1721E+05  0.0000E+00  0.0000E+00  0.0000E+00  0.0000E+00
 averages -2.5672E+05  0.0000E+00  1.7974E+04 -3.0474E+05  3.1745E+05  0.0000E+00  0.0000E+00  0.0000E+00  0.0000E+00
           6.5377E+04  1.1788E+02  2.6314E+03  5.2628E+03  9.0000E+01  9.0000E+01  1.2000E+02  0.0000E+00 -1.4377E+02
 ------------------------------------------------------------------------------------------------------------------------
    27000 -2.5078E+05  1.0117E+02 -2.5085E+05  6.3581E+04 -3.1708E+05  0.0000E+00  0.0000E+00  0.0000E+00  0.0000E+00
  13.500p -2.5693E+05  0.0000E+00  1.8589E+04 -3.0405E+05  3.1733E+05  0.0000E+00  0.0000E+00  0.0000E+00  0.0000E+00
  28.761m  6.5377E+04  1.1671E+02  2.6553E+03  5.3105E+03  9.0000E+01  9.0000E+01  1.2000E+02  0.0000E+00 -1.4873E+02

  rolling -2.5078E+05  9.9401E+01 -2.5085E+05  6.3512E+04 -3.1702E+05  0.0000E+00  0.0000E+00  0.0000E+00  0.0000E+00
 averages -2.5692E+05  0.0000E+00  1.8573E+04 -3.0401E+05  3.1726E+05  0.0000E+00  0.0000E+00  0.0000E+00  0.0000E+00
           6.5377E+04  1.1755E+02  2.6600E+03  5.3201E+03  9.0000E+01  9.0000E+01  1.2000E+02  0.0000E+00 -1.4862E+02
 ------------------------------------------------------------------------------------------------------------------------
    28000 -2.5078E+05  1.0144E+02 -2.5085E+05  6.3688E+04 -3.1718E+05  0.0000E+00  0.0000E+00  0.0000E+00  0.0000E+00
  14.000p -2.5681E+05  0.0000E+00  1.8250E+04 -3.0445E+05  3.1742E+05  0.0000E+00  0.0000E+00  0.0000E+00  0.0000E+00
  29.820m  6.5377E+04  1.1659E+02  2.6403E+03  5.2807E+03  9.0000E+01  9.0000E+01  1.2000E+02  0.0000E+00 -1.4599E+02

  rolling -2.5078E+05  1.0025E+02 -2.5085E+05  6.3693E+04 -3.1720E+05  0.0000E+00  0.0000E+00  0.0000E+00  0.0000E+00
 averages -2.5681E+05  0.0000E+00  1.8234E+04 -3.0452E+05  3.1744E+05  0.0000E+00  0.0000E+00  0.0000E+00  0.0000E+00
           6.5377E+04  1.1729E+02  2.6571E+03  5.3141E+03  9.0000E+01  9.0000E+01  1.2000E+02  0.0000E+00 -1.4588E+02
 ------------------------------------------------------------------------------------------------------------------------
    29000 -2.5078E+05  1.0204E+02 -2.5085E+05  6.3551E+04 -3.1702E+05  0.0000E+00  0.0000E+00  0.0000E+00  0.0000E+00
  14.500p -2.5681E+05  0.0000E+00  1.8245E+04 -3.0426E+05  3.1726E+05  0.0000E+00  0.0000E+00  0.0000E+00  0.0000E+00
  30.932m  6.5377E+04  1.1967E+02  2.6217E+03  5.2433E+03  9.0000E+01  9.0000E+01  1.2000E+02  0.0000E+00 -1.4595E+02

  rolling -2.5078E+05  1.0023E+02 -2.5085E+05  6.3647E+04 -3.1718E+05  0.0000E+00  0.0000E+00  0.0000E+00  0.0000E+00
 averages -2.5679E+05  0.0000E+00  1.8187E+04 -3.0459E+05  3.1742E+05  0.0000E+00  0.0000E+00  0.0000E+00  0.0000E+00
           6.5377E+04  1.1705E+02  2.6817E+03  5.3633E+03  9.0000E+01  9.0000E+01  1.2000E+02  0.0000E+00 -1.4550E+02
 ------------------------------------------------------------------------------------------------------------------------
    30000 -2.5078E+05  1.0146E+02 -2.5085E+05  6.3868E+04 -3.1734E+05  0.0000E+00  0.0000E+00  0.0000E+00  0.0000E+00
  15.000p -2.5660E+05  0.0000E+00  1.7610E+04 -3.0522E+05  3.1758E+05  0.0000E+00  0.0000E+00  0.0000E+00  0.0000E+00
  31.992m  6.5377E+04  1.1835E+02  2.6262E+03  5.2523E+03  9.0000E+01  9.0000E+01  1.2000E+02  0.0000E+00 -1.4084E+02

  rolling -2.5078E+05  9.9669E+01 -2.5085E+05  6.3780E+04 -3.1728E+05  0.0000E+00  0.0000E+00  0.0000E+00  0.0000E+00
 averages -2.5668E+05  0.0000E+00  1.7863E+04 -3.0498E+05  3.1752E+05  0.0000E+00  0.0000E+00  0.0000E+00  0.0000E+00
           6.5377E+04  1.1672E+02  2.6579E+03  5.3158E+03  9.0000E+01  9.0000E+01  1.2000E+02  0.0000E+00 -1.4289E+02
 ------------------------------------------------------------------------------------------------------------------------
    31000 -2.5078E+05  1.0171E+02 -2.5085E+05  6.3621E+04 -3.1719E+05  0.0000E+00  0.0000E+00  0.0000E+00  0.0000E+00
  15.500p -2.5680E+05  0.0000E+00  1.8214E+04 -3.0465E+05  3.1743E+05  0.0000E+00  0.0000E+00  0.0000E+00  0.0000E+00
  33.051m  6.5377E+04  1.1896E+02  2.7170E+03  5.4341E+03  9.0000E+01  9.0000E+01  1.2000E+02  0.0000E+00 -1.4570E+02

  rolling -2.5078E+05  1.0038E+02 -2.5085E+05  6.3668E+04 -3.1717E+05  0.0000E+00  0.0000E+00  0.0000E+00  0.0000E+00
 averages -2.5675E+05  0.0000E+00  1.8054E+04 -3.0468E+05  3.1741E+05  0.0000E+00  0.0000E+00  0.0000E+00  0.0000E+00
           6.5377E+04  1.1643E+02  2.6598E+03  5.3196E+03  9.0000E+01  9.0000E+01  1.2000E+02  0.0000E+00 -1.4442E+02
 ------------------------------------------------------------------------------------------------------------------------
 ------------------------------------------------------------------------------------------------------------------------

     step     eng_tot    temp_tot     eng_cfg     eng_vdw     eng_cou     eng_bnd     eng_ang     eng_dih     eng_tet
 time          eng_pv    temp_rot     vir_cfg     vir_vdw     vir_cou     vir_bnd     vir_ang     vir_con     vir_tet
 cpu time      volume    temp_shl     eng_shl     vir_shl       alpha        beta       gamma     vir_pmf       press

 ------------------------------------------------------------------------------------------------------------------------
    32000 -2.5078E+05  1.0160E+02 -2.5085E+05  6.3776E+04 -3.1730E+05  0.0000E+00  0.0000E+00  0.0000E+00  0.0000E+00
  16.000p -2.5677E+05  0.0000E+00  1.8133E+04 -3.0475E+05  3.1754E+05  0.0000E+00  0.0000E+00  0.0000E+00  0.0000E+00
  34.111m  6.5377E+04  1.1759E+02  2.6718E+03  5.3435E+03  9.0000E+01  9.0000E+01  1.2000E+02  0.0000E+00 -1.4505E+02

  rolling -2.5078E+05  9.9966E+01 -2.5085E+05  6.3684E+04 -3.1717E+05  0.0000E+00  0.0000E+00  0.0000E+00  0.0000E+00
 averages -2.5678E+05  0.0000E+00  1.8151E+04 -3.0455E+05  3.1741E+05  0.0000E+00  0.0000E+00  0.0000E+00  0.0000E+00
           6.5377E+04  1.1624E+02  2.6419E+03  5.2839E+03  9.0000E+01  9.0000E+01  1.2000E+02  0.0000E+00 -1.4521E+02
 ------------------------------------------------------------------------------------------------------------------------
    33000 -2.5078E+05  9.9500E+01 -2.5085E+05  6.3390E+04 -3.1694E+05  0.0000E+00  0.0000E+00  0.0000E+00  0.0000E+00
  16.500p -2.5699E+05  0.0000E+00  1.8786E+04 -3.0381E+05  3.1718E+05  0.0000E+00  0.0000E+00  0.0000E+00  0.0000E+00
  35.171m  6.5377E+04  1.1480E+02  2.7083E+03  5.4165E+03  9.0000E+01  9.0000E+01  1.2000E+02  0.0000E+00 -1.5034E+02

  rolling -2.5078E+05  9.9645E+01 -2.5085E+05  6.3562E+04 -3.1708E+05  0.0000E+00  0.0000E+00  0.0000E+00  0.0000E+00
 averages -2.5691E+05  0.0000E+00  1.8527E+04 -3.0413E+05  3.1732E+05  0.0000E+00  0.0000E+00  0.0000E+00  0.0000E+00
           6.5377E+04  1.1587E+02  2.6698E+03  5.3396E+03  9.0000E+01  9.0000E+01  1.2000E+02  0.0000E+00 -1.4825E+02
 ------------------------------------------------------------------------------------------------------------------------
    34000 -2.5078E+05  9.7710E+01 -2.5084E+05  6.3825E+04 -3.1723E+05  0.0000E+00  0.0000E+00  0.0000E+00  0.0000E+00
  17.000p -2.5661E+05  0.0000E+00  1.7622E+04 -3.0497E+05  3.1747E+05  0.0000E+00  0.0000E+00  0.0000E+00  0.0000E+00
  36.231m  6.5377E+04  1.1364E+02  2.5596E+03  5.1191E+03  9.0000E+01  9.0000E+01  1.2000E+02  0.0000E+00 -1.4097E+02

  rolling -2.5078E+05  1.0030E+02 -2.5085E+05  6.3658E+04 -3.1717E+05  0.0000E+00  0.0000E+00  0.0000E+00  0.0000E+00
 averages -2.5682E+05  0.0000E+00  1.8279E+04 -3.0447E+05  3.1741E+05  0.0000E+00  0.0000E+00  0.0000E+00  0.0000E+00
           6.5377E+04  1.1566E+02  2.6672E+03  5.3343E+03  9.0000E+01  9.0000E+01  1.2000E+02  0.0000E+00 -1.4624E+02
 ------------------------------------------------------------------------------------------------------------------------
    35000 -2.5078E+05  1.0005E+02 -2.5085E+05  6.3491E+04 -3.1703E+05  0.0000E+00  0.0000E+00  0.0000E+00  0.0000E+00
  17.500p -2.5687E+05  0.0000E+00  1.8433E+04 -3.0422E+05  3.1726E+05  0.0000E+00  0.0000E+00  0.0000E+00  0.0000E+00
  37.291m  6.5377E+04  1.1764E+02  2.6935E+03  5.3869E+03  9.0000E+01  9.0000E+01  1.2000E+02  0.0000E+00 -1.4749E+02

  rolling -2.5078E+05  9.9912E+01 -2.5085E+05  6.3728E+04 -3.1724E+05  0.0000E+00  0.0000E+00  0.0000E+00  0.0000E+00
 averages -2.5671E+05  0.0000E+00  1.7934E+04 -3.0487E+05  3.1747E+05  0.0000E+00  0.0000E+00  0.0000E+00  0.0000E+00
           6.5377E+04  1.1550E+02  2.6626E+03  5.3252E+03  9.0000E+01  9.0000E+01  1.2000E+02  0.0000E+00 -1.4346E+02
 ------------------------------------------------------------------------------------------------------------------------
    36000 -2.5078E+05  9.8595E+01 -2.5085E+05  6.3891E+04 -3.1736E+05  0.0000E+00  0.0000E+00  0.0000E+00  0.0000E+00
  18.000p -2.5665E+05  0.0000E+00  1.7761E+04 -3.0509E+05  3.1760E+05  0.0000E+00  0.0000E+00  0.0000E+00  0.0000E+00
  38.351m  6.5377E+04  1.1567E+02  2.6237E+03  5.2474E+03  9.0000E+01  9.0000E+01  1.2000E+02  0.0000E+00 -1.4208E+02

  rolling -2.5078E+05  9.9942E+01 -2.5085E+05  6.3746E+04 -3.1725E+05  0.0000E+00  0.0000E+00  0.0000E+00  0.0000E+00
 averages -2.5669E+05  0.0000E+00  1.7873E+04 -3.0493E+05  3.1748E+05  0.0000E+00  0.0000E+00  0.0000E+00  0.0000E+00
           6.5377E+04  1.1520E+02  2.6582E+03  5.3164E+03  9.0000E+01  9.0000E+01  1.2000E+02  0.0000E+00 -1.4297E+02
 ------------------------------------------------------------------------------------------------------------------------
    37000 -2.5078E+05  9.8366E+01 -2.5085E+05  6.3560E+04 -3.1716E+05  0.0000E+00  0.0000E+00  0.0000E+00  0.0000E+00
  18.500p -2.5692E+05  0.0000E+00  1.8566E+04 -3.0434E+05  3.1740E+05  0.0000E+00  0.0000E+00  0.0000E+00  0.0000E+00
  39.411m  6.5377E+04  1.1408E+02  2.7543E+03  5.5086E+03  9.0000E+01  9.0000E+01  1.2000E+02  0.0000E+00 -1.4858E+02

  rolling -2.5078E+05  1.0007E+02 -2.5085E+05  6.3669E+04 -3.1717E+05  0.0000E+00  0.0000E+00  0.0000E+00  0.0000E+00
 averages -2.5678E+05  0.0000E+00  1.8164E+04 -3.0456E+05  3.1741E+05  0.0000E+00  0.0000E+00  0.0000E+00  0.0000E+00
           6.5377E+04  1.1495E+02  2.6568E+03  5.3136E+03  9.0000E+01  9.0000E+01  1.2000E+02  0.0000E+00 -1.4531E+02
 ------------------------------------------------------------------------------------------------------------------------
    38000 -2.5078E+05  1.0044E+02 -2.5085E+05  6.3865E+04 -3.1731E+05  0.0000E+00  0.0000E+00  0.0000E+00  0.0000E+00
  19.000p -2.5665E+05  0.0000E+00  1.7773E+04 -3.0498E+05  3.1755E+05  0.0000E+00  0.0000E+00  0.0000E+00  0.0000E+00
  40.471m  6.5377E+04  1.1509E+02  2.6005E+03  5.2011E+03  9.0000E+01  9.0000E+01  1.2000E+02  0.0000E+00 -1.4216E+02

  rolling -2.5078E+05  9.9947E+01 -2.5085E+05  6.3605E+04 -3.1712E+05  0.0000E+00  0.0000E+00  0.0000E+00  0.0000E+00
 averages -2.5686E+05  0.0000E+00  1.8398E+04 -3.0429E+05  3.1736E+05  0.0000E+00  0.0000E+00  0.0000E+00  0.0000E+00
           6.5377E+04  1.1478E+02  2.6668E+03  5.3335E+03  9.0000E+01  9.0000E+01  1.2000E+02  0.0000E+00 -1.4720E+02
 ------------------------------------------------------------------------------------------------------------------------
    39000 -2.5078E+05  9.9088E+01 -2.5085E+05  6.3463E+04 -3.1699E+05  0.0000E+00  0.0000E+00  0.0000E+00  0.0000E+00
  19.500p -2.5693E+05  0.0000E+00  1.8596E+04 -3.0399E+05  3.1723E+05  0.0000E+00  0.0000E+00  0.0000E+00  0.0000E+00
  41.531m  6.5377E+04  1.1578E+02  2.6789E+03  5.3577E+03  9.0000E+01  9.0000E+01  1.2000E+02  0.0000E+00 -1.4881E+02

  rolling -2.5078E+05  9.9914E+01 -2.5085E+05  6.3650E+04 -3.1715E+05  0.0000E+00  0.0000E+00  0.0000E+00  0.0000E+00
 averages -2.5683E+05  0.0000E+00  1.8289E+04 -3.0442E+05  3.1739E+05  0.0000E+00  0.0000E+00  0.0000E+00  0.0000E+00
           6.5377E+04  1.1446E+02  2.6569E+03  5.3138E+03  9.0000E+01  9.0000E+01  1.2000E+02  0.0000E+00 -1.4633E+02
 ------------------------------------------------------------------------------------------------------------------------
 ------------------------------------------------------------------------------------------------------------------------

     step     eng_tot    temp_tot     eng_cfg     eng_vdw     eng_cou     eng_bnd     eng_ang     eng_dih     eng_tet
 time          eng_pv    temp_rot     vir_cfg     vir_vdw     vir_cou     vir_bnd     vir_ang     vir_con     vir_tet
 cpu time      volume    temp_shl     eng_shl     vir_shl       alpha        beta       gamma     vir_pmf       press

 ------------------------------------------------------------------------------------------------------------------------
    40000 -2.5078E+05  9.9279E+01 -2.5085E+05  6.3749E+04 -3.1719E+05  0.0000E+00  0.0000E+00  0.0000E+00  0.0000E+00
  20.000p -2.5670E+05  0.0000E+00  1.7918E+04 -3.0469E+05  3.1742E+05  0.0000E+00  0.0000E+00  0.0000E+00  0.0000E+00
  42.590m  6.5377E+04  1.1493E+02  2.5937E+03  5.1874E+03  9.0000E+01  9.0000E+01  1.2000E+02  0.0000E+00 -1.4334E+02

  rolling -2.5078E+05  1.0015E+02 -2.5085E+05  6.3654E+04 -3.1717E+05  0.0000E+00  0.0000E+00  0.0000E+00  0.0000E+00
 averages -2.5679E+05  0.0000E+00  1.8177E+04 -3.0457E+05  3.1741E+05  0.0000E+00  0.0000E+00  0.0000E+00  0.0000E+00
           6.5377E+04  1.1422E+02  2.6682E+03  5.3365E+03  9.0000E+01  9.0000E+01  1.2000E+02  0.0000E+00 -1.4542E+02
 ------------------------------------------------------------------------------------------------------------------------
    41000 -2.5078E+05  1.0068E+02 -2.5085E+05  6.3590E+04 -3.1715E+05  0.0000E+00  0.0000E+00  0.0000E+00  0.0000E+00
  20.500p -2.5684E+05  0.0000E+00  1.8345E+04 -3.0449E+05  3.1739E+05  0.0000E+00  0.0000E+00  0.0000E+00  0.0000E+00
  43.650m  6.5377E+04  1.1568E+02  2.7179E+03  5.4359E+03  9.0000E+01  9.0000E+01  1.2000E+02  0.0000E+00 -1.4677E+02

  rolling -2.5078E+05  9.9801E+01 -2.5085E+05  6.3765E+04 -3.1727E+05  0.0000E+00  0.0000E+00  0.0000E+00  0.0000E+00
 averages -2.5669E+05  0.0000E+00  1.7871E+04 -3.0494E+05  3.1750E+05  0.0000E+00  0.0000E+00  0.0000E+00  0.0000E+00
           6.5377E+04  1.1407E+02  2.6553E+03  5.3106E+03  9.0000E+01  9.0000E+01  1.2000E+02  0.0000E+00 -1.4295E+02
 ------------------------------------------------------------------------------------------------------------------------
    42000 -2.5078E+05  9.9798E+01 -2.5085E+05  6.3795E+04 -3.1730E+05  0.0000E+00  0.0000E+00  0.0000E+00  0.0000E+00
  21.000p -2.5669E+05  0.0000E+00  1.7890E+04 -3.0497E+05  3.1754E+05  0.0000E+00  0.0000E+00  0.0000E+00  0.0000E+00
  44.710m  6.5377E+04  1.1435E+02  2.6592E+03  5.3184E+03  9.0000E+01  9.0000E+01  1.2000E+02  0.0000E+00 -1.4310E+02

  rolling -2.5078E+05  9.9907E+01 -2.5085E+05  6.3690E+04 -3.1720E+05  0.0000E+00  0.0000E+00  0.0000E+00  0.0000E+00
 averages -2.5674E+05  0.0000E+00  1.8037E+04 -3.0474E+05  3.1744E+05  0.0000E+00  0.0000E+00  0.0000E+00  0.0000E+00
           6.5377E+04  1.1385E+02  2.6672E+03  5.3344E+03  9.0000E+01  9.0000E+01  1.2000E+02  0.0000E+00 -1.4429E+02
 ------------------------------------------------------------------------------------------------------------------------
    43000 -2.5078E+05  1.0178E+02 -2.5085E+05  6.3631E+04 -3.1718E+05  0.0000E+00  0.0000E+00  0.0000E+00  0.0000E+00
  21.500p -2.5682E+05  0.0000E+00  1.8285E+04 -3.0455E+05  3.1742E+05  0.0000E+00  0.0000E+00  0.0000E+00  0.0000E+00
  45.770m  6.5377E+04  1.1386E+02  2.7061E+03  5.4123E+03  9.0000E+01  9.0000E+01  1.2000E+02  0.0000E+00 -1.4627E+02

  rolling -2.5078E+05  1.0016E+02 -2.5085E+05  6.3686E+04 -3.1719E+05  0.0000E+00  0.0000E+00  0.0000E+00  0.0000E+00
 averages -2.5679E+05  0.0000E+00  1.8191E+04 -3.0455E+05  3.1743E+05  0.0000E+00  0.0000E+00  0.0000E+00  0.0000E+00
           6.5377E+04  1.1370E+02  2.6580E+03  5.3160E+03  9.0000E+01  9.0000E+01  1.2000E+02  0.0000E+00 -1.4554E+02
 ------------------------------------------------------------------------------------------------------------------------
    44000 -2.5078E+05  1.0106E+02 -2.5085E+05  6.3685E+04 -3.1715E+05  0.0000E+00  0.0000E+00  0.0000E+00  0.0000E+00
  22.000p -2.5674E+05  0.0000E+00  1.8023E+04 -3.0460E+05  3.1739E+05  0.0000E+00  0.0000E+00  0.0000E+00  0.0000E+00
  46.830m  6.5377E+04  1.1495E+02  2.6187E+03  5.2375E+03  9.0000E+01  9.0000E+01  1.2000E+02  0.0000E+00 -1.4416E+02

  rolling -2.5078E+05  9.9859E+01 -2.5085E+05  6.3579E+04 -3.1709E+05  0.0000E+00  0.0000E+00  0.0000E+00  0.0000E+00
 averages -2.5688E+05  0.0000E+00  1.8441E+04 -3.0423E+05  3.1733E+05  0.0000E+00  0.0000E+00  0.0000E+00  0.0000E+00
           6.5377E+04  1.1339E+02  2.6696E+03  5.3392E+03  9.0000E+01  9.0000E+01  1.2000E+02  0.0000E+00 -1.4755E+02
 ------------------------------------------------------------------------------------------------------------------------
    45000 -2.5078E+05  9.9879E+01 -2.5085E+05  6.3646E+04 -3.1715E+05  0.0000E+00  0.0000E+00  0.0000E+00  0.0000E+00
  22.500p -2.5681E+05  0.0000E+00  1.8233E+04 -3.0446E+05  3.1738E+05  0.0000E+00  0.0000E+00  0.0000E+00  0.0000E+00
  47.889m  6.5377E+04  1.1327E+02  2.6569E+03  5.3138E+03  9.0000E+01  9.0000E+01  1.2000E+02  0.0000E+00 -1.4587E+02

  rolling -2.5078E+05  1.0003E+02 -2.5085E+05  6.3697E+04 -3.1720E+05  0.0000E+00  0.0000E+00  0.0000E+00  0.0000E+00
 averages -2.5678E+05  0.0000E+00  1.8144E+04 -3.0459E+05  3.1743E+05  0.0000E+00  0.0000E+00  0.0000E+00  0.0000E+00
           6.5377E+04  1.1326E+02  2.6524E+03  5.3047E+03  9.0000E+01  9.0000E+01  1.2000E+02  0.0000E+00 -1.4515E+02
 ------------------------------------------------------------------------------------------------------------------------
    46000 -2.5078E+05  1.0065E+02 -2.5085E+05  6.3605E+04 -3.1710E+05  0.0000E+00  0.0000E+00  0.0000E+00  0.0000E+00
  23.000p -2.5683E+05  0.0000E+00  1.8315E+04 -3.0433E+05  3.1734E+05  0.0000E+00  0.0000E+00  0.0000E+00  0.0000E+00
  48.949m  6.5377E+04  1.1251E+02  2.6511E+03  5.3022E+03  9.0000E+01  9.0000E+01  1.2000E+02  0.0000E+00 -1.4652E+02

  rolling -2.5078E+05  1.0010E+02 -2.5085E+05  6.3672E+04 -3.1719E+05  0.0000E+00  0.0000E+00  0.0000E+00  0.0000E+00
 averages -2.5676E+05  0.0000E+00  1.8088E+04 -3.0466E+05  3.1742E+05  0.0000E+00  0.0000E+00  0.0000E+00  0.0000E+00
           6.5377E+04  1.1316E+02  2.6674E+03  5.3348E+03  9.0000E+01  9.0000E+01  1.2000E+02  0.0000E+00 -1.4470E+02
 ------------------------------------------------------------------------------------------------------------------------
    47000 -2.5078E+05  9.9562E+01 -2.5085E+05  6.3772E+04 -3.1730E+05  0.0000E+00  0.0000E+00  0.0000E+00  0.0000E+00
  23.500p -2.5675E+05  0.0000E+00  1.8072E+04 -3.0483E+05  3.1753E+05  0.0000E+00  0.0000E+00  0.0000E+00  0.0000E+00
  50.009m  6.5377E+04  1.1107E+02  2.6834E+03  5.3667E+03  9.0000E+01  9.0000E+01  1.2000E+02  0.0000E+00 -1.4457E+02

  rolling -2.5078E+05  9.9797E+01 -2.5085E+05  6.3760E+04 -3.1726E+05  0.0000E+00  0.0000E+00  0.0000E+00  0.0000E+00
 averages -2.5670E+05  0.0000E+00  1.7912E+04 -3.0490E+05  3.1750E+05  0.0000E+00  0.0000E+00  0.0000E+00  0.0000E+00
           6.5377E+04  1.1296E+02  2.6569E+03  5.3137E+03  9.0000E+01  9.0000E+01  1.2000E+02  0.0000E+00 -1.4329E+02
 ------------------------------------------------------------------------------------------------------------------------
 ------------------------------------------------------------------------------------------------------------------------

     step     eng_tot    temp_tot     eng_cfg     eng_vdw     eng_cou     eng_bnd     eng_ang     eng_dih     eng_tet
 time          eng_pv    temp_rot     vir_cfg     vir_vdw     vir_cou     vir_bnd     vir_ang     vir_con     vir_tet
 cpu time      volume    temp_shl     eng_shl     vir_shl       alpha        beta       gamma     vir_pmf       press

 ------------------------------------------------------------------------------------------------------------------------
    48000 -2.5078E+05  1.0081E+02 -2.5085E+05  6.3643E+04 -3.1717E+05  0.0000E+00  0.0000E+00  0.0000E+00  0.0000E+00
  24.000p -2.5678E+05  0.0000E+00  1.8159E+04 -3.0460E+05  3.1740E+05  0.0000E+00  0.0000E+00  0.0000E+00  0.0000E+00
  51.069m  6.5377E+04  1.1360E+02  2.6779E+03  5.3558E+03  9.0000E+01  9.0000E+01  1.2000E+02  0.0000E+00 -1.4527E+02

  rolling -2.5078E+05  1.0013E+02 -2.5085E+05  6.3662E+04 -3.1718E+05  0.0000E+00  0.0000E+00  0.0000E+00  0.0000E+00
 averages -2.5678E+05  0.0000E+00  1.8162E+04 -3.0460E+05  3.1741E+05  0.0000E+00  0.0000E+00  0.0000E+00  0.0000E+00
           6.5377E+04  1.1274E+02  2.6732E+03  5.3464E+03  9.0000E+01  9.0000E+01  1.2000E+02  0.0000E+00 -1.4530E+02
 ------------------------------------------------------------------------------------------------------------------------
    49000 -2.5078E+05  1.0036E+02 -2.5085E+05  6.3815E+04 -3.1731E+05  0.0000E+00  0.0000E+00  0.0000E+00  0.0000E+00
  24.500p -2.5669E+05  0.0000E+00  1.7881E+04 -3.0496E+05  3.1754E+05  0.0000E+00  0.0000E+00  0.0000E+00  0.0000E+00
  52.129m  6.5377E+04  1.1244E+02  2.6493E+03  5.2986E+03  9.0000E+01  9.0000E+01  1.2000E+02  0.0000E+00 -1.4303E+02

  rolling -2.5078E+05  1.0012E+02 -2.5085E+05  6.3679E+04 -3.1718E+05  0.0000E+00  0.0000E+00  0.0000E+00  0.0000E+00
 averages -2.5680E+05  0.0000E+00  1.8212E+04 -3.0453E+05  3.1742E+05  0.0000E+00  0.0000E+00  0.0000E+00  0.0000E+00
           6.5377E+04  1.1254E+02  2.6589E+03  5.3178E+03  9.0000E+01  9.0000E+01  1.2000E+02  0.0000E+00 -1.4570E+02
 ------------------------------------------------------------------------------------------------------------------------
    50000 -2.5078E+05  1.0020E+02 -2.5085E+05  6.3532E+04 -3.1704E+05  0.0000E+00  0.0000E+00  0.0000E+00  0.0000E+00
  25.000p -2.5685E+05  0.0000E+00  1.8356E+04 -3.0424E+05  3.1727E+05  0.0000E+00  0.0000E+00  0.0000E+00  0.0000E+00
  53.211m  6.5377E+04  1.1245E+02  2.6628E+03  5.3257E+03  9.0000E+01  9.0000E+01  1.2000E+02  0.0000E+00 -1.4687E+02

  rolling -2.5078E+05  9.9795E+01 -2.5085E+05  6.3607E+04 -3.1712E+05  0.0000E+00  0.0000E+00  0.0000E+00  0.0000E+00
 averages -2.5685E+05  0.0000E+00  1.8353E+04 -3.0433E+05  3.1735E+05  0.0000E+00  0.0000E+00  0.0000E+00  0.0000E+00
           6.5377E+04  1.1230E+02  2.6654E+03  5.3307E+03  9.0000E+01  9.0000E+01  1.2000E+02  0.0000E+00 -1.4684E+02
 ------------------------------------------------------------------------------------------------------------------------
    51000 -2.5078E+05  1.0024E+02 -2.5085E+05  6.3806E+04 -3.1729E+05  0.0000E+00  0.0000E+00  0.0000E+00  0.0000E+00
  25.500p -2.5673E+05  0.0000E+00  1.7986E+04 -3.0482E+05  3.1753E+05  0.0000E+00  0.0000E+00  0.0000E+00  0.0000E+00
  54.272m  6.5377E+04  1.1207E+02  2.6386E+03  5.2771E+03  9.0000E+01  9.0000E+01  1.2000E+02  0.0000E+00 -1.4388E+02

  rolling -2.5078E+05  1.0007E+02 -2.5085E+05  6.3698E+04 -3.1720E+05  0.0000E+00  0.0000E+00  0.0000E+00  0.0000E+00
 averages -2.5676E+05  0.0000E+00  1.8104E+04 -3.0464E+05  3.1743E+05  0.0000E+00  0.0000E+00  0.0000E+00  0.0000E+00
           6.5377E+04  1.1208E+02  2.6558E+03  5.3117E+03  9.0000E+01  9.0000E+01  1.2000E+02  0.0000E+00 -1.4483E+02
 ------------------------------------------------------------------------------------------------------------------------
    52000 -2.5078E+05  9.9700E+01 -2.5085E+05  6.3497E+04 -3.1703E+05  0.0000E+00  0.0000E+00  0.0000E+00  0.0000E+00
  26.000p -2.5691E+05  0.0000E+00  1.8529E+04 -3.0412E+05  3.1727E+05  0.0000E+00  0.0000E+00  0.0000E+00  0.0000E+00
  55.332m  6.5377E+04  1.1110E+02  2.6916E+03  5.3832E+03  9.0000E+01  9.0000E+01  1.2000E+02  0.0000E+00 -1.4826E+02

  rolling -2.5078E+05  9.9981E+01 -2.5085E+05  6.3703E+04 -3.1721E+05  0.0000E+00  0.0000E+00  0.0000E+00  0.0000E+00
 averages -2.5674E+05  0.0000E+00  1.8024E+04 -3.0475E+05  3.1745E+05  0.0000E+00  0.0000E+00  0.0000E+00  0.0000E+00
           6.5377E+04  1.1200E+02  2.6632E+03  5.3263E+03  9.0000E+01  9.0000E+01  1.2000E+02  0.0000E+00 -1.4419E+02
 ------------------------------------------------------------------------------------------------------------------------
    53000 -2.5078E+05  9.9483E+01 -2.5085E+05  6.3867E+04 -3.1737E+05  0.0000E+00  0.0000E+00  0.0000E+00  0.0000E+00
  26.500p -2.5668E+05  0.0000E+00  1.7854E+04 -3.0506E+05  3.1760E+05  0.0000E+00  0.0000E+00  0.0000E+00  0.0000E+00
  56.393m  6.5377E+04  1.1104E+02  2.6576E+03  5.3151E+03  9.0000E+01  9.0000E+01  1.2000E+02  0.0000E+00 -1.4282E+02

  rolling -2.5078E+05  9.9945E+01 -2.5085E+05  6.3722E+04 -3.1723E+05  0.0000E+00  0.0000E+00  0.0000E+00  0.0000E+00
 averages -2.5674E+05  0.0000E+00  1.8020E+04 -3.0478E+05  3.1747E+05  0.0000E+00  0.0000E+00  0.0000E+00  0.0000E+00
           6.5377E+04  1.1183E+02  2.6660E+03  5.3320E+03  9.0000E+01  9.0000E+01  1.2000E+02  0.0000E+00 -1.4416E+02
 ------------------------------------------------------------------------------------------------------------------------
    54000 -2.5078E+05  1.0062E+02 -2.5085E+05  6.3530E+04 -3.1706E+05  0.0000E+00  0.0000E+00  0.0000E+00  0.0000E+00
  27.000p -2.5683E+05  0.0000E+00  1.8301E+04 -3.0436E+05  3.1729E+05  0.0000E+00  0.0000E+00  0.0000E+00  0.0000E+00
  57.454m  6.5377E+04  1.1345E+02  2.6832E+03  5.3664E+03  9.0000E+01  9.0000E+01  1.2000E+02  0.0000E+00 -1.4641E+02

  rolling -2.5078E+05  1.0019E+02 -2.5085E+05  6.3665E+04 -3.1718E+05  0.0000E+00  0.0000E+00  0.0000E+00  0.0000E+00
 averages -2.5680E+05  0.0000E+00  1.8208E+04 -3.0454E+05  3.1741E+05  0.0000E+00  0.0000E+00  0.0000E+00  0.0000E+00
           6.5377E+04  1.1168E+02  2.6682E+03  5.3363E+03  9.0000E+01  9.0000E+01  1.2000E+02  0.0000E+00 -1.4567E+02
 ------------------------------------------------------------------------------------------------------------------------
    55000 -2.5078E+05  9.9535E+01 -2.5085E+05  6.3872E+04 -3.1734E+05  0.0000E+00  0.0000E+00  0.0000E+00  0.0000E+00
  27.500p -2.5664E+05  0.0000E+00  1.7730E+04 -3.0510E+05  3.1758E+05  0.0000E+00  0.0000E+00  0.0000E+00  0.0000E+00
  58.514m  6.5377E+04  1.1245E+02  2.6260E+03  5.2521E+03  9.0000E+01  9.0000E+01  1.2000E+02  0.0000E+00 -1.4182E+02

  rolling -2.5078E+05  1.0006E+02 -2.5085E+05  6.3651E+04 -3.1716E+05  0.0000E+00  0.0000E+00  0.0000E+00  0.0000E+00
 averages -2.5682E+05  0.0000E+00  1.8263E+04 -3.0446E+05  3.1740E+05  0.0000E+00  0.0000E+00  0.0000E+00  0.0000E+00
           6.5377E+04  1.1150E+02  2.6640E+03  5.3280E+03  9.0000E+01  9.0000E+01  1.2000E+02  0.0000E+00 -1.4611E+02
 ------------------------------------------------------------------------------------------------------------------------
 ------------------------------------------------------------------------------------------------------------------------

     step     eng_tot    temp_tot     eng_cfg     eng_vdw     eng_cou     eng_bnd     eng_ang     eng_dih     eng_tet
 time          eng_pv    temp_rot     vir_cfg     vir_vdw     vir_cou     vir_bnd     vir_ang     vir_con     vir_tet
 cpu time      volume    temp_shl     eng_shl     vir_shl       alpha        beta       gamma     vir_pmf       press

 ------------------------------------------------------------------------------------------------------------------------
    56000 -2.5078E+05  9.9435E+01 -2.5085E+05  6.3476E+04 -3.1700E+05  0.0000E+00  0.0000E+00  0.0000E+00  0.0000E+00
  28.000p -2.5691E+05  0.0000E+00  1.8540E+04 -3.0405E+05  3.1723E+05  0.0000E+00  0.0000E+00  0.0000E+00  0.0000E+00
  59.575m  6.5377E+04  1.1044E+02  2.6766E+03  5.3533E+03  9.0000E+01  9.0000E+01  1.2000E+02  0.0000E+00 -1.4836E+02

  rolling -2.5078E+05  9.9892E+01 -2.5085E+05  6.3669E+04 -3.1717E+05  0.0000E+00  0.0000E+00  0.0000E+00  0.0000E+00
 averages -2.5679E+05  0.0000E+00  1.8186E+04 -3.0454E+05  3.1741E+05  0.0000E+00  0.0000E+00  0.0000E+00  0.0000E+00
           6.5377E+04  1.1129E+02  2.6576E+03  5.3152E+03  9.0000E+01  9.0000E+01  1.2000E+02  0.0000E+00 -1.4549E+02
 ------------------------------------------------------------------------------------------------------------------------
    57000 -2.5078E+05  9.9944E+01 -2.5085E+05  6.3817E+04 -3.1731E+05  0.0000E+00  0.0000E+00  0.0000E+00  0.0000E+00
  28.500p -2.5673E+05  0.0000E+00  1.8000E+04 -3.0484E+05  3.1755E+05  0.0000E+00  0.0000E+00  0.0000E+00  0.0000E+00
   1.011h  6.5377E+04  1.1115E+02  2.6490E+03  5.2981E+03  9.0000E+01  9.0000E+01  1.2000E+02  0.0000E+00 -1.4399E+02

  rolling -2.5078E+05  1.0007E+02 -2.5085E+05  6.3687E+04 -3.1719E+05  0.0000E+00  0.0000E+00  0.0000E+00  0.0000E+00
 averages -2.5676E+05  0.0000E+00  1.8092E+04 -3.0466E+05  3.1743E+05  0.0000E+00  0.0000E+00  0.0000E+00  0.0000E+00
           6.5377E+04  1.1113E+02  2.6615E+03  5.3231E+03  9.0000E+01  9.0000E+01  1.2000E+02  0.0000E+00 -1.4474E+02
 ------------------------------------------------------------------------------------------------------------------------
    58000 -2.5078E+05  9.9757E+01 -2.5085E+05  6.3533E+04 -3.1707E+05  0.0000E+00  0.0000E+00  0.0000E+00  0.0000E+00
  29.000p -2.5688E+05  0.0000E+00  1.8435E+04 -3.0426E+05  3.1731E+05  0.0000E+00  0.0000E+00  0.0000E+00  0.0000E+00
   1.028h  6.5377E+04  1.1078E+02  2.6934E+03  5.3867E+03  9.0000E+01  9.0000E+01  1.2000E+02  0.0000E+00 -1.4751E+02

  rolling -2.5078E+05  9.9933E+01 -2.5085E+05  6.3724E+04 -3.1723E+05  0.0000E+00  0.0000E+00  0.0000E+00  0.0000E+00
 averages -2.5674E+05  0.0000E+00  1.8016E+04 -3.0477E+05  3.1746E+05  0.0000E+00  0.0000E+00  0.0000E+00  0.0000E+00
           6.5377E+04  1.1098E+02  2.6632E+03  5.3264E+03  9.0000E+01  9.0000E+01  1.2000E+02  0.0000E+00 -1.4412E+02
 ------------------------------------------------------------------------------------------------------------------------
    59000 -2.5078E+05  9.9889E+01 -2.5085E+05  6.3843E+04 -3.1734E+05  0.0000E+00  0.0000E+00  0.0000E+00  0.0000E+00
  29.500p -2.5667E+05  0.0000E+00  1.7815E+04 -3.0506E+05  3.1757E+05  0.0000E+00  0.0000E+00  0.0000E+00  0.0000E+00
   1.046h  6.5377E+04  1.1050E+02  2.6534E+03  5.3068E+03  9.0000E+01  9.0000E+01  1.2000E+02  0.0000E+00 -1.4251E+02

  rolling -2.5078E+05  9.9993E+01 -2.5085E+05  6.3689E+04 -3.1721E+05  0.0000E+00  0.0000E+00  0.0000E+00  0.0000E+00
 averages -2.5676E+05  0.0000E+00  1.8104E+04 -3.0468E+05  3.1744E+05  0.0000E+00  0.0000E+00  0.0000E+00  0.0000E+00
           6.5377E+04  1.1082E+02  2.6712E+03  5.3423E+03  9.0000E+01  9.0000E+01  1.2000E+02  0.0000E+00 -1.4483E+02
 ------------------------------------------------------------------------------------------------------------------------
    60000 -2.5078E+05  1.0032E+02 -2.5085E+05  6.3599E+04 -3.1711E+05  0.0000E+00  0.0000E+00  0.0000E+00  0.0000E+00
  30.000p -2.5679E+05  0.0000E+00  1.8176E+04 -3.0449E+05  3.1734E+05  0.0000E+00  0.0000E+00  0.0000E+00  0.0000E+00
   1.064h  6.5377E+04  1.1161E+02  2.6660E+03  5.3321E+03  9.0000E+01  9.0000E+01  1.2000E+02  0.0000E+00 -1.4541E+02

  rolling -2.5078E+05  1.0006E+02 -2.5085E+05  6.3690E+04 -3.1720E+05  0.0000E+00  0.0000E+00  0.0000E+00  0.0000E+00
 averages -2.5679E+05  0.0000E+00  1.8171E+04 -3.0459E+05  3.1743E+05  0.0000E+00  0.0000E+00  0.0000E+00  0.0000E+00
           6.5377E+04  1.1072E+02  2.6640E+03  5.3280E+03  9.0000E+01  9.0000E+01  1.2000E+02  0.0000E+00 -1.4537E+02
 ------------------------------------------------------------------------------------------------------------------------
    61000 -2.5078E+05  1.0013E+02 -2.5085E+05  6.3752E+04 -3.1724E+05  0.0000E+00  0.0000E+00  0.0000E+00  0.0000E+00
  30.500p -2.5672E+05  0.0000E+00  1.7962E+04 -3.0478E+05  3.1747E+05  0.0000E+00  0.0000E+00  0.0000E+00  0.0000E+00
   1.081h  6.5377E+04  1.1059E+02  2.6379E+03  5.2758E+03  9.0000E+01  9.0000E+01  1.2000E+02  0.0000E+00 -1.4369E+02

  rolling -2.5078E+05  9.9953E+01 -2.5085E+05  6.3636E+04 -3.1715E+05  0.0000E+00  0.0000E+00  0.0000E+00  0.0000E+00
 averages -2.5682E+05  0.0000E+00  1.8259E+04 -3.0445E+05  3.1738E+05  0.0000E+00  0.0000E+00  0.0000E+00  0.0000E+00
           6.5377E+04  1.1056E+02  2.6648E+03  5.3297E+03  9.0000E+01  9.0000E+01  1.2000E+02  0.0000E+00 -1.4608E+02
 ------------------------------------------------------------------------------------------------------------------------
    62000 -2.5078E+05  9.9131E+01 -2.5085E+05  6.3595E+04 -3.1712E+05  0.0000E+00  0.0000E+00  0.0000E+00  0.0000E+00
  31.000p -2.5686E+05  0.0000E+00  1.8384E+04 -3.0432E+05  3.1735E+05  0.0000E+00  0.0000E+00  0.0000E+00  0.0000E+00
   1.099h  6.5377E+04  1.0938E+02  2.6782E+03  5.3565E+03  9.0000E+01  9.0000E+01  1.2000E+02  0.0000E+00 -1.4710E+02

  rolling -2.5078E+05  1.0002E+02 -2.5085E+05  6.3709E+04 -3.1721E+05  0.0000E+00  0.0000E+00  0.0000E+00  0.0000E+00
 averages -2.5675E+05  0.0000E+00  1.8073E+04 -3.0467E+05  3.1744E+05  0.0000E+00  0.0000E+00  0.0000E+00  0.0000E+00
           6.5377E+04  1.1047E+02  2.6533E+03  5.3066E+03  9.0000E+01  9.0000E+01  1.2000E+02  0.0000E+00 -1.4458E+02
 ------------------------------------------------------------------------------------------------------------------------
    63000 -2.5078E+05  1.0037E+02 -2.5085E+05  6.3681E+04 -3.1720E+05  0.0000E+00  0.0000E+00  0.0000E+00  0.0000E+00
  31.500p -2.5680E+05  0.0000E+00  1.8223E+04 -3.0454E+05  3.1743E+05  0.0000E+00  0.0000E+00  0.0000E+00  0.0000E+00
   1.117h  6.5377E+04  1.1106E+02  2.6679E+03  5.3358E+03  9.0000E+01  9.0000E+01  1.2000E+02  0.0000E+00 -1.4579E+02

  rolling -2.5078E+05  1.0000E+02 -2.5085E+05  6.3680E+04 -3.1720E+05  0.0000E+00  0.0000E+00  0.0000E+00  0.0000E+00
 averages -2.5677E+05  0.0000E+00  1.8107E+04 -3.0466E+05  3.1742E+05  0.0000E+00  0.0000E+00  0.0000E+00  0.0000E+00
           6.5377E+04  1.1033E+02  2.6692E+03  5.3384E+03  9.0000E+01  9.0000E+01  1.2000E+02  0.0000E+00 -1.4485E+02
 ------------------------------------------------------------------------------------------------------------------------
 ------------------------------------------------------------------------------------------------------------------------

     step     eng_tot    temp_tot     eng_cfg     eng_vdw     eng_cou     eng_bnd     eng_ang     eng_dih     eng_tet
 time          eng_pv    temp_rot     vir_cfg     vir_vdw     vir_cou     vir_bnd     vir_ang     vir_con     vir_tet
 cpu time      volume    temp_shl     eng_shl     vir_shl       alpha        beta       gamma     vir_pmf       press

 ------------------------------------------------------------------------------------------------------------------------
    64000 -2.5078E+05  1.0035E+02 -2.5085E+05  6.3706E+04 -3.1723E+05  0.0000E+00  0.0000E+00  0.0000E+00  0.0000E+00
  32.000p -2.5676E+05  0.0000E+00  1.8101E+04 -3.0471E+05  3.1746E+05  0.0000E+00  0.0000E+00  0.0000E+00  0.0000E+00
   1.134h  6.5377E+04  1.1089E+02  2.6750E+03  5.3500E+03  9.0000E+01  9.0000E+01  1.2000E+02  0.0000E+00 -1.4480E+02

  rolling -2.5078E+05  1.0008E+02 -2.5085E+05  6.3729E+04 -3.1724E+05  0.0000E+00  0.0000E+00  0.0000E+00  0.0000E+00
 averages -2.5674E+05  0.0000E+00  1.8042E+04 -3.0476E+05  3.1747E+05  0.0000E+00  0.0000E+00  0.0000E+00  0.0000E+00
           6.5377E+04  1.1014E+02  2.6651E+03  5.3302E+03  9.0000E+01  9.0000E+01  1.2000E+02  0.0000E+00 -1.4433E+02
 ------------------------------------------------------------------------------------------------------------------------
    65000 -2.5078E+05  1.0132E+02 -2.5085E+05  6.3714E+04 -3.1721E+05  0.0000E+00  0.0000E+00  0.0000E+00  0.0000E+00
  32.500p -2.5671E+05  0.0000E+00  1.7947E+04 -3.0480E+05  3.1744E+05  0.0000E+00  0.0000E+00  0.0000E+00  0.0000E+00
   1.152h  6.5377E+04  1.1148E+02  2.6536E+03  5.3071E+03  9.0000E+01  9.0000E+01  1.2000E+02  0.0000E+00 -1.4355E+02

  rolling -2.5078E+05  1.0015E+02 -2.5085E+05  6.3663E+04 -3.1718E+05  0.0000E+00  0.0000E+00  0.0000E+00  0.0000E+00
 averages -2.5679E+05  0.0000E+00  1.8189E+04 -3.0457E+05  3.1741E+05  0.0000E+00  0.0000E+00  0.0000E+00  0.0000E+00
           6.5377E+04  1.0998E+02  2.6742E+03  5.3484E+03  9.0000E+01  9.0000E+01  1.2000E+02  0.0000E+00 -1.4551E+02
 ------------------------------------------------------------------------------------------------------------------------
    66000 -2.5078E+05  9.9689E+01 -2.5085E+05  6.3742E+04 -3.1724E+05  0.0000E+00  0.0000E+00  0.0000E+00  0.0000E+00
  33.000p -2.5672E+05  0.0000E+00  1.7981E+04 -3.0479E+05  3.1747E+05  0.0000E+00  0.0000E+00  0.0000E+00  0.0000E+00
   1.170h  6.5377E+04  1.0950E+02  2.6517E+03  5.3035E+03  9.0000E+01  9.0000E+01  1.2000E+02  0.0000E+00 -1.4384E+02

  rolling -2.5078E+05  1.0006E+02 -2.5085E+05  6.3705E+04 -3.1721E+05  0.0000E+00  0.0000E+00  0.0000E+00  0.0000E+00
 averages -2.5676E+05  0.0000E+00  1.8104E+04 -3.0465E+05  3.1744E+05  0.0000E+00  0.0000E+00  0.0000E+00  0.0000E+00
           6.5377E+04  1.0983E+02  2.6575E+03  5.3150E+03  9.0000E+01  9.0000E+01  1.2000E+02  0.0000E+00 -1.4483E+02
 ------------------------------------------------------------------------------------------------------------------------
    67000 -2.5078E+05  1.0003E+02 -2.5085E+05  6.3602E+04 -3.1713E+05  0.0000E+00  0.0000E+00  0.0000E+00  0.0000E+00
  33.500p -2.5685E+05  0.0000E+00  1.8362E+04 -3.0435E+05  3.1736E+05  0.0000E+00  0.0000E+00  0.0000E+00  0.0000E+00
   1.188h  6.5377E+04  1.0949E+02  2.6778E+03  5.3557E+03  9.0000E+01  9.0000E+01  1.2000E+02  0.0000E+00 -1.4691E+02

  rolling -2.5078E+05  9.9949E+01 -2.5085E+05  6.3646E+04 -3.1715E+05  0.0000E+00  0.0000E+00  0.0000E+00  0.0000E+00
 averages -2.5680E+05  0.0000E+00  1.8219E+04 -3.0449E+05  3.1739E+05  0.0000E+00  0.0000E+00  0.0000E+00  0.0000E+00
           6.5377E+04  1.0966E+02  2.6615E+03  5.3230E+03  9.0000E+01  9.0000E+01  1.2000E+02  0.0000E+00 -1.4576E+02
 ------------------------------------------------------------------------------------------------------------------------
    68000 -2.5078E+05  1.0038E+02 -2.5085E+05  6.3720E+04 -3.1723E+05  0.0000E+00  0.0000E+00  0.0000E+00  0.0000E+00
  34.000p -2.5679E+05  0.0000E+00  1.8176E+04 -3.0462E+05  3.1747E+05  0.0000E+00  0.0000E+00  0.0000E+00  0.0000E+00
   1.205h  6.5377E+04  1.0983E+02  2.6665E+03  5.3331E+03  9.0000E+01  9.0000E+01  1.2000E+02  0.0000E+00 -1.4540E+02

  rolling -2.5078E+05  1.0015E+02 -2.5085E+05  6.3705E+04 -3.1721E+05  0.0000E+00  0.0000E+00  0.0000E+00  0.0000E+00
 averages -2.5676E+05  0.0000E+00  1.8091E+04 -3.0467E+05  3.1744E+05  0.0000E+00  0.0000E+00  0.0000E+00  0.0000E+00
           6.5377E+04  1.0959E+02  2.6594E+03  5.3187E+03  9.0000E+01  9.0000E+01  1.2000E+02  0.0000E+00 -1.4472E+02
 ------------------------------------------------------------------------------------------------------------------------
    69000 -2.5078E+05  1.0059E+02 -2.5085E+05  6.3589E+04 -3.1711E+05  0.0000E+00  0.0000E+00  0.0000E+00  0.0000E+00
  34.500p -2.5682E+05  0.0000E+00  1.8282E+04 -3.0440E+05  3.1734E+05  0.0000E+00  0.0000E+00  0.0000E+00  0.0000E+00
   1.223h  6.5377E+04  1.0948E+02  2.6745E+03  5.3490E+03  9.0000E+01  9.0000E+01  1.2000E+02  0.0000E+00 -1.4626E+02

  rolling -2.5078E+05  1.0005E+02 -2.5085E+05  6.3685E+04 -3.1720E+05  0.0000E+00  0.0000E+00  0.0000E+00  0.0000E+00
 averages -2.5677E+05  0.0000E+00  1.8128E+04 -3.0465E+05  3.1743E+05  0.0000E+00  0.0000E+00  0.0000E+00  0.0000E+00
           6.5377E+04  1.0945E+02  2.6719E+03  5.3439E+03  9.0000E+01  9.0000E+01  1.2000E+02  0.0000E+00 -1.4503E+02
 ------------------------------------------------------------------------------------------------------------------------
    70000 -2.5078E+05  1.0070E+02 -2.5085E+05  6.3807E+04 -3.1730E+05  0.0000E+00  0.0000E+00  0.0000E+00  0.0000E+00
  35.000p -2.5667E+05  0.0000E+00  1.7817E+04 -3.0501E+05  3.1753E+05  0.0000E+00  0.0000E+00  0.0000E+00  0.0000E+00
   1.241h  6.5377E+04  1.1026E+02  2.6472E+03  5.2943E+03  9.0000E+01  9.0000E+01  1.2000E+02  0.0000E+00 -1.4251E+02

  rolling -2.5078E+05  9.9986E+01 -2.5085E+05  6.3721E+04 -3.1724E+05  0.0000E+00  0.0000E+00  0.0000E+00  0.0000E+00
 averages -2.5675E+05  0.0000E+00  1.8058E+04 -3.0475E+05  3.1747E+05  0.0000E+00  0.0000E+00  0.0000E+00  0.0000E+00
           6.5377E+04  1.0934E+02  2.6693E+03  5.3385E+03  9.0000E+01  9.0000E+01  1.2000E+02  0.0000E+00 -1.4446E+02
 ------------------------------------------------------------------------------------------------------------------------
    71000 -2.5078E+05  9.9215E+01 -2.5085E+05  6.3617E+04 -3.1713E+05  0.0000E+00  0.0000E+00  0.0000E+00  0.0000E+00
  35.500p -2.5679E+05  0.0000E+00  1.8166E+04 -3.0453E+05  3.1736E+05  0.0000E+00  0.0000E+00  0.0000E+00  0.0000E+00
   1.258h  6.5377E+04  1.0841E+02  2.6707E+03  5.3415E+03  9.0000E+01  9.0000E+01  1.2000E+02  0.0000E+00 -1.4534E+02

  rolling -2.5078E+05  1.0009E+02 -2.5085E+05  6.3670E+04 -3.1718E+05  0.0000E+00  0.0000E+00  0.0000E+00  0.0000E+00
 averages -2.5679E+05  0.0000E+00  1.8178E+04 -3.0457E+05  3.1741E+05  0.0000E+00  0.0000E+00  0.0000E+00  0.0000E+00
           6.5377E+04  1.0915E+02  2.6670E+03  5.3340E+03  9.0000E+01  9.0000E+01  1.2000E+02  0.0000E+00 -1.4542E+02
 ------------------------------------------------------------------------------------------------------------------------
 ------------------------------------------------------------------------------------------------------------------------

     step     eng_tot    temp_tot     eng_cfg     eng_vdw     eng_cou     eng_bnd     eng_ang     eng_dih     eng_tet
 time          eng_pv    temp_rot     vir_cfg     vir_vdw     vir_cou     vir_bnd     vir_ang     vir_con     vir_tet
 cpu time      volume    temp_shl     eng_shl     vir_shl       alpha        beta       gamma     vir_pmf       press

 ------------------------------------------------------------------------------------------------------------------------
    72000 -2.5078E+05  1.0078E+02 -2.5085E+05  6.3788E+04 -3.1729E+05  0.0000E+00  0.0000E+00  0.0000E+00  0.0000E+00
  36.000p -2.5672E+05  0.0000E+00  1.7979E+04 -3.0484E+05  3.1752E+05  0.0000E+00  0.0000E+00  0.0000E+00  0.0000E+00
   1.276h  6.5377E+04  1.0982E+02  2.6527E+03  5.3054E+03  9.0000E+01  9.0000E+01  1.2000E+02  0.0000E+00 -1.4381E+02

  rolling -2.5078E+05  1.0000E+02 -2.5085E+05  6.3678E+04 -3.1718E+05  0.0000E+00  0.0000E+00  0.0000E+00  0.0000E+00
 averages -2.5678E+05  0.0000E+00  1.8152E+04 -3.0458E+05  3.1741E+05  0.0000E+00  0.0000E+00  0.0000E+00  0.0000E+00
           6.5377E+04  1.0897E+02  2.6582E+03  5.3164E+03  9.0000E+01  9.0000E+01  1.2000E+02  0.0000E+00 -1.4522E+02
 ------------------------------------------------------------------------------------------------------------------------
    73000 -2.5078E+05  1.0010E+02 -2.5085E+05  6.3571E+04 -3.1711E+05  0.0000E+00  0.0000E+00  0.0000E+00  0.0000E+00
  36.500p -2.5688E+05  0.0000E+00  1.8453E+04 -3.0426E+05  3.1734E+05  0.0000E+00  0.0000E+00  0.0000E+00  0.0000E+00
   1.294h  6.5377E+04  1.0934E+02  2.6891E+03  5.3782E+03  9.0000E+01  9.0000E+01  1.2000E+02  0.0000E+00 -1.4764E+02

  rolling -2.5078E+05  9.9992E+01 -2.5085E+05  6.3691E+04 -3.1720E+05  0.0000E+00  0.0000E+00  0.0000E+00  0.0000E+00
 averages -2.5677E+05  0.0000E+00  1.8124E+04 -3.0463E+05  3.1743E+05  0.0000E+00  0.0000E+00  0.0000E+00  0.0000E+00
           6.5377E+04  1.0881E+02  2.6620E+03  5.3241E+03  9.0000E+01  9.0000E+01  1.2000E+02  0.0000E+00 -1.4500E+02
 ------------------------------------------------------------------------------------------------------------------------
    74000 -2.5078E+05  9.9855E+01 -2.5085E+05  6.3801E+04 -3.1730E+05  0.0000E+00  0.0000E+00  0.0000E+00  0.0000E+00
  37.000p -2.5673E+05  0.0000E+00  1.8014E+04 -3.0484E+05  3.1754E+05  0.0000E+00  0.0000E+00  0.0000E+00  0.0000E+00
   1.311h  6.5377E+04  1.0847E+02  2.6568E+03  5.3136E+03  9.0000E+01  9.0000E+01  1.2000E+02  0.0000E+00 -1.4410E+02

  rolling -2.5078E+05  1.0000E+02 -2.5085E+05  6.3684E+04 -3.1720E+05  0.0000E+00  0.0000E+00  0.0000E+00  0.0000E+00
 averages -2.5678E+05  0.0000E+00  1.8151E+04 -3.0461E+05  3.1743E+05  0.0000E+00  0.0000E+00  0.0000E+00  0.0000E+00
           6.5377E+04  1.0864E+02  2.6680E+03  5.3360E+03  9.0000E+01  9.0000E+01  1.2000E+02  0.0000E+00 -1.4521E+02
 ------------------------------------------------------------------------------------------------------------------------
    75000 -2.5078E+05  1.0029E+02 -2.5085E+05  6.3613E+04 -3.1713E+05  0.0000E+00  0.0000E+00  0.0000E+00  0.0000E+00
  37.500p -2.5679E+05  0.0000E+00  1.8186E+04 -3.0451E+05  3.1736E+05  0.0000E+00  0.0000E+00  0.0000E+00  0.0000E+00
   1.329h  6.5377E+04  1.0975E+02  2.6681E+03  5.3361E+03  9.0000E+01  9.0000E+01  1.2000E+02  0.0000E+00 -1.4549E+02

  rolling -2.5078E+05  9.9988E+01 -2.5085E+05  6.3712E+04 -3.1723E+05  0.0000E+00  0.0000E+00  0.0000E+00  0.0000E+00
 averages -2.5675E+05  0.0000E+00  1.8072E+04 -3.0472E+05  3.1746E+05  0.0000E+00  0.0000E+00  0.0000E+00  0.0000E+00
           6.5377E+04  1.0850E+02  2.6695E+03  5.3390E+03  9.0000E+01  9.0000E+01  1.2000E+02  0.0000E+00 -1.4457E+02
 ------------------------------------------------------------------------------------------------------------------------
    76000 -2.5078E+05  9.9459E+01 -2.5085E+05  6.3790E+04 -3.1728E+05  0.0000E+00  0.0000E+00  0.0000E+00  0.0000E+00
  38.000p -2.5669E+05  0.0000E+00  1.7870E+04 -3.0494E+05  3.1751E+05  0.0000E+00  0.0000E+00  0.0000E+00  0.0000E+00
   1.347h  6.5377E+04  1.0797E+02  2.6474E+03  5.2948E+03  9.0000E+01  9.0000E+01  1.2000E+02  0.0000E+00 -1.4295E+02

  rolling -2.5078E+05  9.9979E+01 -2.5085E+05  6.3700E+04 -3.1721E+05  0.0000E+00  0.0000E+00  0.0000E+00  0.0000E+00
 averages -2.5676E+05  0.0000E+00  1.8080E+04 -3.0470E+05  3.1744E+05  0.0000E+00  0.0000E+00  0.0000E+00  0.0000E+00
           6.5377E+04  1.0835E+02  2.6683E+03  5.3366E+03  9.0000E+01  9.0000E+01  1.2000E+02  0.0000E+00 -1.4464E+02
 ------------------------------------------------------------------------------------------------------------------------
    77000 -2.5078E+05  1.0044E+02 -2.5085E+05  6.3601E+04 -3.1713E+05  0.0000E+00  0.0000E+00  0.0000E+00  0.0000E+00
  38.500p -2.5682E+05  0.0000E+00  1.8258E+04 -3.0446E+05  3.1736E+05  0.0000E+00  0.0000E+00  0.0000E+00  0.0000E+00
   1.364h  6.5377E+04  1.0866E+02  2.6797E+03  5.3595E+03  9.0000E+01  9.0000E+01  1.2000E+02  0.0000E+00 -1.4607E+02

  rolling -2.5078E+05  1.0010E+02 -2.5085E+05  6.3702E+04 -3.1721E+05  0.0000E+00  0.0000E+00  0.0000E+00  0.0000E+00
 averages -2.5676E+05  0.0000E+00  1.8095E+04 -3.0466E+05  3.1744E+05  0.0000E+00  0.0000E+00  0.0000E+00  0.0000E+00
           6.5377E+04  1.0824E+02  2.6602E+03  5.3205E+03  9.0000E+01  9.0000E+01  1.2000E+02  0.0000E+00 -1.4476E+02
 ------------------------------------------------------------------------------------------------------------------------
    78000 -2.5078E+05  1.0028E+02 -2.5085E+05  6.3749E+04 -3.1726E+05  0.0000E+00  0.0000E+00  0.0000E+00  0.0000E+00
  39.000p -2.5676E+05  0.0000E+00  1.8093E+04 -3.0473E+05  3.1749E+05  0.0000E+00  0.0000E+00  0.0000E+00  0.0000E+00
   1.382h  6.5377E+04  1.0881E+02  2.6639E+03  5.3278E+03  9.0000E+01  9.0000E+01  1.2000E+02  0.0000E+00 -1.4474E+02

  rolling -2.5078E+05  9.9881E+01 -2.5085E+05  6.3657E+04 -3.1717E+05  0.0000E+00  0.0000E+00  0.0000E+00  0.0000E+00
 averages -2.5680E+05  0.0000E+00  1.8214E+04 -3.0451E+05  3.1740E+05  0.0000E+00  0.0000E+00  0.0000E+00  0.0000E+00
           6.5377E+04  1.0809E+02  2.6649E+03  5.3299E+03  9.0000E+01  9.0000E+01  1.2000E+02  0.0000E+00 -1.4572E+02
 ------------------------------------------------------------------------------------------------------------------------
    79000 -2.5078E+05  1.0025E+02 -2.5085E+05  6.3599E+04 -3.1711E+05  0.0000E+00  0.0000E+00  0.0000E+00  0.0000E+00
  39.500p -2.5682E+05  0.0000E+00  1.8283E+04 -3.0440E+05  3.1735E+05  0.0000E+00  0.0000E+00  0.0000E+00  0.0000E+00
   1.400h  6.5377E+04  1.0918E+02  2.6676E+03  5.3352E+03  9.0000E+01  9.0000E+01  1.2000E+02  0.0000E+00 -1.4627E+02

  rolling -2.5078E+05  9.9874E+01 -2.5085E+05  6.3693E+04 -3.1720E+05  0.0000E+00  0.0000E+00  0.0000E+00  0.0000E+00
 averages -2.5678E+05  0.0000E+00  1.8143E+04 -3.0461E+05  3.1743E+05  0.0000E+00  0.0000E+00  0.0000E+00  0.0000E+00
           6.5377E+04  1.0807E+02  2.6629E+03  5.3259E+03  9.0000E+01  9.0000E+01  1.2000E+02  0.0000E+00 -1.4515E+02
 ------------------------------------------------------------------------------------------------------------------------
 ------------------------------------------------------------------------------------------------------------------------

     step     eng_tot    temp_tot     eng_cfg     eng_vdw     eng_cou     eng_bnd     eng_ang     eng_dih     eng_tet
 time          eng_pv    temp_rot     vir_cfg     vir_vdw     vir_cou     vir_bnd     vir_ang     vir_con     vir_tet
[...]
   11.1094  9.319315E-01  3.217997E+02
   11.2031  8.782907E-01  3.289509E+02
   11.2969  9.792701E-01  3.370584E+02
   11.3906  1.316255E+00  3.481373E+02
   11.4844  8.488631E-01  3.554003E+02
   11.5781  6.191315E-01  3.607846E+02
   11.6719  1.008015E+00  3.696932E+02
   11.7656  5.777980E-01  3.748821E+02
   11.8594  5.818393E-01  3.801908E+02
   11.9531  1.126054E+00  3.906280E+02

g(r)  :O_-shl  P_      

        r      g(r)         n(r)

    1.1719  0.000000E+00  0.000000E+00
    1.2656  0.000000E+00  0.000000E+00
    1.3594  3.815338E-01  1.143893E-02
    1.4531  2.627210E+01  9.114607E-01
    1.5469  2.280820E+00  1.000000E+00
    1.6406  0.000000E+00  1.000000E+00
    1.7344  0.000000E+00  1.000000E+00
    1.8281  0.000000E+00  1.000000E+00
    1.9219  0.000000E+00  1.000000E+00
    2.0156  0.000000E+00  1.000000E+00
    2.1094  0.000000E+00  1.000000E+00
    2.2031  0.000000E+00  1.000000E+00
    2.2969  0.000000E+00  1.000000E+00
    2.3906  0.000000E+00  1.000000E+00
    2.4844  0.000000E+00  1.000000E+00
    2.5781  0.000000E+00  1.000000E+00
    2.6719  0.000000E+00  1.000000E+00
    2.7656  0.000000E+00  1.000000E+00
    2.8594  0.000000E+00  1.000000E+00
    2.9531  0.000000E+00  1.000000E+00
    3.0469  0.000000E+00  1.000000E+00
    3.1406  0.000000E+00  1.000000E+00
    3.2344  0.000000E+00  1.000000E+00
    3.3281  7.141838E-06  1.000001E+00
    3.4219  2.500456E-01  1.047488E+00
    3.5156  4.448208E+00  1.939186E+00
    3.6094  2.281226E+00  2.421198E+00
    3.7031  3.834571E-01  2.506484E+00
    3.7969  2.145752E+00  3.008198E+00
    3.8906  1.989775E+00  3.496699E+00
    3.9844  5.776507E-01  3.645432E+00
    4.0781  4.916556E+00  4.971613E+00
    4.1719  1.005612E-01  4.999999E+00
    4.2656  2.173828E-06  5.000000E+00
    4.3594  1.915456E-02  5.005904E+00
    4.4531  2.351038E+00  5.762052E+00
    4.5469  2.000698E+00  6.432901E+00
    4.6406  1.497966E+00  6.956105E+00
    4.7344  1.207436E-01  6.999999E+00
    4.8281  1.696826E-06  7.000000E+00
    4.9219  0.000000E+00  7.000000E+00
    5.0156  6.509469E-04  7.000266E+00
    5.1094  9.596456E-01  7.406578E+00
    5.2031  3.474946E+00  8.932351E+00
    5.2969  4.611396E-01  9.142190E+00
    5.3906  1.739345E+00  9.961930E+00
    5.4844  1.041484E+00  1.046999E+01
    5.5781  1.311030E+00  1.113160E+01
    5.6719  1.302886E+00  1.181139E+01
    5.7656  3.961288E-01  1.202496E+01
    5.8594  7.195781E-01  1.242563E+01
    5.9531  8.277267E-01  1.290139E+01
    6.0469  1.094713E+00  1.355058E+01
    6.1406  7.532221E-01  1.401122E+01
    6.2344  7.177172E-01  1.446365E+01
    6.3281  6.274033E-02  1.450439E+01
    6.4219  6.442991E-01  1.493534E+01
    6.5156  1.014879E+00  1.563411E+01
    6.6094  8.024537E-01  1.620264E+01
    6.7031  4.062290E-01  1.649866E+01
    6.7969  7.756447E-03  1.650448E+01
    6.8906  5.425342E-01  1.692226E+01
    6.9844  1.254828E+00  1.791503E+01
    7.0781  1.934574E+00  1.948695E+01
    7.1719  2.004344E+00  2.115898E+01
    7.2656  9.271912E-01  2.195280E+01
    7.3594  1.772830E-01  2.210853E+01
    7.4531  1.860199E+00  2.378441E+01
    7.5469  9.388675E-01  2.465166E+01
    7.6406  4.167020E-01  2.504620E+01
    7.7344  1.764650E+00  2.675825E+01
    7.8281  1.656170E+00  2.840424E+01
    7.9219  1.533468E+00  2.996500E+01
    8.0156  1.876719E+00  3.192061E+01
    8.1094  6.499574E-01  3.261382E+01
    8.2031  1.324226E+00  3.405902E+01
    8.2969  1.266372E+00  3.547284E+01
    8.3906  7.313744E-01  3.630794E+01
    8.4844  2.166522E-01  3.656087E+01
    8.5781  4.885384E-01  3.714390E+01
    8.6719  6.809160E-01  3.797437E+01
    8.7656  4.714096E-01  3.856182E+01
    8.8594  1.352107E+00  4.028299E+01
    8.9531  1.333306E+00  4.201633E+01
    9.0469  1.169930E+00  4.356930E+01
    9.1406  1.556591E+00  4.567857E+01
    9.2344  9.364975E-01  4.697374E+01
    9.3281  9.336233E-01  4.829128E+01
    9.4219  1.870556E+00  5.098437E+01
    9.5156  1.426321E+00  5.307895E+01
    9.6094  6.004169E-01  5.397814E+01
    9.7031  9.796463E-01  5.547402E+01
    9.7969  1.338018E+00  5.755679E+01
    9.8906  9.911589E-01  5.912931E+01
    9.9844  5.761426E-01  6.006080E+01
   10.0781  5.896339E-01  6.103208E+01
   10.1719  6.541243E-01  6.212974E+01
   10.2656  4.269569E-01  6.285946E+01
   10.3594  3.110568E-01  6.340086E+01
   10.4531  6.665607E-01  6.458209E+01
   10.5469  2.447884E-01  6.502370E+01
   10.6406  6.987960E-01  6.630689E+01
   10.7344  7.638174E-01  6.773429E+01
   10.8281  1.012577E+00  6.965977E+01
   10.9219  1.688379E+00  7.292617E+01
   11.0156  1.073724E+00  7.503925E+01
   11.1094  2.976253E-01  7.563498E+01
   11.2031  1.485513E+00  7.865882E+01
   11.2969  1.779431E+00  8.234183E+01
   11.3906  1.105192E+00  8.466744E+01
   11.4844  1.216923E+00  8.727048E+01
   11.5781  1.646917E+00  9.085105E+01
   11.6719  1.040412E+00  9.314979E+01
   11.7656  1.742401E+00  9.706164E+01
   11.8594  9.861224E-01  9.931100E+01
   11.9531  8.481583E-01  1.012764E+02

g(r)  :O_-shl  Ti      

        r      g(r)         n(r)

    1.6406  0.000000E+00  0.000000E+00
    1.7344  0.000000E+00  0.000000E+00
    1.8281  1.168644E-01  4.223762E-03
    1.9219  2.422958E+01  9.720394E-01
    2.0156  6.364123E-01  1.000000E+00
    2.1094  0.000000E+00  1.000000E+00
    2.2031  0.000000E+00  1.000000E+00
    2.2969  0.000000E+00  1.000000E+00
    2.3906  0.000000E+00  1.000000E+00
    2.4844  0.000000E+00  1.000000E+00
    2.5781  0.000000E+00  1.000000E+00
    2.6719  0.000000E+00  1.000000E+00
    2.7656  0.000000E+00  1.000000E+00
    2.8594  0.000000E+00  1.000000E+00
    2.9531  0.000000E+00  1.000000E+00
    3.0469  0.000000E+00  1.000000E+00
    3.1406  0.000000E+00  1.000000E+00
    3.2344  0.000000E+00  1.000000E+00
    3.3281  0.000000E+00  1.000000E+00
    3.4219  0.000000E+00  1.000000E+00
    3.5156  9.600601E-06  1.000001E+00
    3.6094  9.787403E-02  1.013788E+00
    3.7031  5.300539E+00  1.799730E+00
    3.7969  1.284342E+00  1.999931E+00
    3.8906  9.328600E-04  2.000083E+00
    3.9844  1.941669E+00  2.333376E+00
    4.0781  3.559037E+00  2.973381E+00
    4.1719  6.516754E-01  3.096018E+00
    4.2656  4.557594E+00  3.992680E+00
    4.3594  3.562212E-02  4.000000E+00
    4.4531  0.000000E+00  4.000000E+00
    4.5469  0.000000E+00  4.000000E+00
    4.6406  0.000000E+00  4.000000E+00
    4.7344  0.000000E+00  4.000000E+00
    4.8281  2.545239E-06  4.000001E+00
    4.9219  1.949615E-01  4.051067E+00
    5.0156  3.114024E+00  4.898090E+00
    5.1094  1.777435E+00  5.399799E+00
    5.2031  2.021374E+00  5.991493E+00
    5.2969  2.804302E-02  6.000000E+00
    5.3906  0.000000E+00  6.000000E+00
    5.4844  0.000000E+00  6.000000E+00
    5.5781  1.453006E-03  6.000489E+00
    5.6719  1.179558E+00  6.410781E+00
    5.7656  2.430851E+00  7.284498E+00
    5.8594  3.234614E+00  8.485226E+00
    5.9531  1.307072E+00  8.986078E+00
    6.0469  3.521505E-02  9.000000E+00
    6.1406  0.000000E+00  9.000000E+00
    6.2344  0.000000E+00  9.000000E+00
    6.3281  1.341961E-01  9.058104E+00
    6.4219  2.026845E+00  9.961884E+00
    6.5156  1.142733E+00  1.048642E+01
    6.6094  1.324807E+00  1.111215E+01
    6.7031  2.072356E+00  1.211894E+01
    6.7969  1.748112E+00  1.299212E+01
    6.8906  6.559853E-01  1.332889E+01
    6.9844  2.452906E+00  1.462264E+01
    7.0781  6.956612E-01  1.499948E+01
    7.1719  2.401527E-01  1.513304E+01
    7.2656  1.503099E+00  1.599096E+01
    7.3594  1.543118E-02  1.600000E+01
    7.4531  0.000000E+00  1.600000E+01
    7.5469  3.729429E-03  1.600230E+01
    7.6406  1.655173E+00  1.704706E+01
    7.7344  2.613343E+00  1.873735E+01
    7.8281  1.473703E+00  1.971378E+01
    7.9219  4.230734E-01  2.000085E+01
    8.0156  5.027684E-01  2.035012E+01
    8.1094  9.062147E-01  2.099447E+01
    8.2031  7.603162E-03  2.100000E+01
    8.2969  9.524099E-02  2.107089E+01
    8.3906  1.177489E+00  2.196720E+01
    8.4844  9.784256E-01  2.272872E+01
    8.5781  7.063400E-01  2.329069E+01
    8.6719  2.002536E+00  2.491894E+01
    8.7656  1.073021E+00  2.581038E+01
    8.8594  1.646225E+00  2.720742E+01
    8.9531  9.128074E-01  2.799854E+01
    9.0469  5.366292E-01  2.847342E+01
    9.1406  5.835905E-01  2.900062E+01
    9.2344  4.950134E-01  2.945702E+01
    9.3281  1.725570E+00  3.108046E+01
    9.4219  1.274950E+00  3.230418E+01
    9.5156  1.373597E+00  3.364894E+01
    9.6094  1.961372E+00  3.560718E+01
    9.7031  9.511010E-01  3.657537E+01
    9.7969  5.457212E-01  3.714169E+01
    9.8906  1.122060E+00  3.832849E+01
    9.9844  6.894648E-01  3.907162E+01
   10.0781  1.554164E+00  4.077837E+01
   10.1719  2.180745E+00  4.321798E+01
   10.2656  1.461616E+00  4.488338E+01
   10.3594  2.672130E-01  4.519343E+01
   10.4531  1.419177E+00  4.687008E+01
   10.5469  1.265394E-01  4.702227E+01
   10.6406  7.137110E-01  4.789599E+01
   10.7344  6.886555E-01  4.875395E+01
   10.8281  1.954041E-01  4.900167E+01
   10.9219  5.442357E-01  4.970360E+01
   11.0156  1.008851E+00  5.102720E+01
   11.1094  8.951161E-01  5.222166E+01
   11.2031  1.203801E+00  5.385526E+01
   11.2969  1.049515E-01  5.400008E+01
   11.3906  1.953432E-01  5.427411E+01
   11.4844  1.406077E+00  5.627922E+01
   11.5781  1.811320E+00  5.890455E+01
   11.6719  2.671468E+00  6.283954E+01
   11.7656  6.528207E-01  6.381664E+01
   11.8594  7.795350E-01  6.500205E+01
   11.9531  7.671532E-01  6.618716E+01

g(r)  :P_      P_      

        r      g(r)         n(r)

    3.9844  0.000000E+00  0.000000E+00
    4.0781  0.000000E+00  0.000000E+00
    4.1719  2.563154E-01  7.235309E-02
    4.2656  1.070384E+01  3.231168E+00
    4.3594  2.494393E+00  4.000000E+00
    4.4531  3.191407E-05  4.000010E+00
    4.5469  1.852953E+00  4.621319E+00
    4.6406  9.635227E+00  7.986677E+00
    4.7344  3.664909E-02  8.000000E+00
    4.8281  0.000000E+00  8.000000E+00
    4.9219  0.000000E+00  8.000000E+00
    5.0156  0.000000E+00  8.000000E+00
    5.1094  0.000000E+00  8.000000E+00
    5.2031  1.427700E+00  8.626872E+00
    5.2969  7.402765E+00  1.199545E+01
    5.3906  9.659006E-03  1.200000E+01
    5.4844  0.000000E+00  1.200000E+01
    5.5781  0.000000E+00  1.200000E+01
    5.6719  0.000000E+00  1.200000E+01
    5.7656  0.000000E+00  1.200000E+01
    5.8594  0.000000E+00  1.200000E+01
    5.9531  0.000000E+00  1.200000E+01
    6.0469  0.000000E+00  1.200000E+01
    6.1406  0.000000E+00  1.200000E+01
    6.2344  0.000000E+00  1.200000E+01
    6.3281  0.000000E+00  1.200000E+01
    6.4219  3.085093E-01  1.220635E+01
    6.5156  5.505421E+00  1.599698E+01
    6.6094  4.259388E-03  1.600000E+01
    6.7031  0.000000E+00  1.600000E+01
    6.7969  0.000000E+00  1.600000E+01
    6.8906  1.518862E-01  1.611696E+01
    6.9844  4.310316E+00  1.952710E+01
    7.0781  5.819737E-01  1.999998E+01
    7.1719  2.460857E-05  2.000000E+01
    7.2656  0.000000E+00  2.000000E+01
    7.3594  0.000000E+00  2.000000E+01
    7.4531  0.000000E+00  2.000000E+01
    7.5469  0.000000E+00  2.000000E+01
    7.6406  1.767064E-03  2.000167E+01
    7.7344  1.369205E+00  2.133006E+01
    7.8281  6.831108E-01  2.200898E+01
    7.9219  3.099354E+00  2.516350E+01
    8.0156  8.027480E-01  2.599999E+01
    8.1094  9.623840E-06  2.600000E+01
    8.2031  6.536562E-04  2.600071E+01
    8.2969  1.785304E+00  2.799390E+01
    8.3906  1.777352E+00  3.002330E+01
    8.4844  9.654960E+00  4.129518E+01
    8.5781  3.941790E+00  4.599936E+01
    8.6719  5.259903E-04  4.600000E+01
    8.7656  5.765754E-05  4.600007E+01
    8.8594  1.034420E+00  4.731684E+01
    8.9531  2.062242E+00  4.999782E+01
    9.0469  1.639316E-03  5.000000E+01
    9.1406  0.000000E+00  5.000000E+01
    9.2344  0.000000E+00  5.000000E+01
    9.3281  0.000000E+00  5.000000E+01
    9.4219  8.279310E-02  5.011920E+01
    9.5156  2.553056E+00  5.386841E+01
    9.6094  8.786629E-02  5.400000E+01
    9.7031  0.000000E+00  5.400000E+01
    9.7969  0.000000E+00  5.400000E+01
    9.8906  0.000000E+00  5.400000E+01
    9.9844  2.253779E-04  5.400036E+01
   10.0781  9.210639E-01  5.551760E+01
   10.1719  2.874734E-01  5.600000E+01
   10.2656  0.000000E+00  5.600000E+01
   10.3594  3.892260E-04  5.600068E+01
   10.4531  8.548438E-01  5.751558E+01
   10.5469  2.353597E+00  6.176162E+01
   10.6406  1.021873E+00  6.363806E+01
   10.7344  3.395408E+00  6.998333E+01
   10.8281  8.768766E-03  7.000000E+01
   10.9219  1.736509E-01  7.033595E+01
   11.0156  3.720171E+00  7.765720E+01
   11.1094  1.288156E+00  8.023561E+01
   11.2031  8.666442E-01  8.199971E+01
   11.2969  4.562435E-04  8.200066E+01
   11.3906  9.445219E-01  8.398818E+01
   11.4844  2.894047E+00  9.017866E+01
   11.5781  8.376904E-01  9.199988E+01
   11.6719  5.342472E-05  9.200000E+01
   11.7656  0.000000E+00  9.200000E+01
   11.8594  2.249946E-06  9.200001E+01
   11.9531  2.615558E-01  9.260609E+01

g(r)  :P_      Ti      

        r      g(r)         n(r)

    3.0469  0.000000E+00  0.000000E+00
    3.1406  0.000000E+00  0.000000E+00
    3.2344  4.017350E+00  4.544239E-01
    3.3281  2.960387E+01  4.000000E+00
    3.4219  0.000000E+00  4.000000E+00
    3.5156  0.000000E+00  4.000000E+00
    3.6094  0.000000E+00  4.000000E+00
    3.7031  0.000000E+00  4.000000E+00
    3.7969  0.000000E+00  4.000000E+00
    3.8906  0.000000E+00  4.000000E+00
    3.9844  0.000000E+00  4.000000E+00
    4.0781  0.000000E+00  4.000000E+00
    4.1719  0.000000E+00  4.000000E+00
    4.2656  0.000000E+00  4.000000E+00
    4.3594  0.000000E+00  4.000000E+00
    4.4531  0.000000E+00  4.000000E+00
    4.5469  0.000000E+00  4.000000E+00
    4.6406  0.000000E+00  4.000000E+00
    4.7344  0.000000E+00  4.000000E+00
    4.8281  0.000000E+00  4.000000E+00
    4.9219  0.000000E+00  4.000000E+00
    5.0156  0.000000E+00  4.000000E+00
    5.1094  0.000000E+00  4.000000E+00
    5.2031  0.000000E+00  4.000000E+00
    5.2969  0.000000E+00  4.000000E+00
    5.3906  0.000000E+00  4.000000E+00
    5.4844  3.945158E-05  4.000013E+00
    5.5781  3.232653E+00  5.087580E+00
    5.6719  8.366665E+00  7.997801E+00
    5.7656  6.118398E-03  8.000000E+00
    5.8594  0.000000E+00  8.000000E+00
    5.9531  0.000000E+00  8.000000E+00
    6.0469  0.000000E+00  8.000000E+00
    6.1406  0.000000E+00  8.000000E+00
    6.2344  0.000000E+00  8.000000E+00
    6.3281  1.082186E-02  8.004686E+00
    6.4219  8.119915E+00  1.162539E+01
    6.5156  8.161084E-01  1.200000E+01
    6.6094  0.000000E+00  1.200000E+01
    6.7031  0.000000E+00  1.200000E+01
    6.7969  0.000000E+00  1.200000E+01
    6.8906  0.000000E+00  1.200000E+01
    6.9844  0.000000E+00  1.200000E+01
    7.0781  0.000000E+00  1.200000E+01
    7.1719  1.690563E-01  1.209402E+01
    7.2656  6.789890E+00  1.596949E+01
    7.3594  5.209311E-02  1.600000E+01
    7.4531  0.000000E+00  1.600000E+01
    7.5469  0.000000E+00  1.600000E+01
    7.6406  0.000000E+00  1.600000E+01
    7.7344  0.000000E+00  1.600000E+01
    7.8281  1.783526E+00  1.718171E+01
    7.9219  1.002894E+01  2.398668E+01
    8.0156  1.917479E-02  2.400000E+01
    8.1094  0.000000E+00  2.400000E+01
    8.2031  0.000000E+00  2.400000E+01
    8.2969  0.000000E+00  2.400000E+01
    8.3906  0.000000E+00  2.400000E+01
    8.4844  7.641719E-02  2.405948E+01
    8.5781  4.819399E+00  2.789383E+01
    8.6719  1.305739E-01  2.800000E+01
    8.7656  0.000000E+00  2.800000E+01
    8.8594  0.000000E+00  2.800000E+01
    8.9531  0.000000E+00  2.800000E+01
    9.0469  2.351887E-01  2.820813E+01
    9.1406  4.187639E+00  3.199112E+01
    9.2344  9.635352E-03  3.200000E+01
    9.3281  0.000000E+00  3.200000E+01
    9.4219  0.000000E+00  3.200000E+01
    9.5156  1.960572E-03  3.200192E+01
    9.6094  2.872529E+00  3.486985E+01
    9.7031  1.110178E+00  3.599998E+01
    9.7969  1.730927E-05  3.600000E+01
    9.8906  0.000000E+00  3.600000E+01
    9.9844  0.000000E+00  3.600000E+01
   10.0781  1.278156E-03  3.600140E+01
   10.1719  4.646790E+00  4.119979E+01
   10.2656  2.457535E+00  4.399996E+01
   10.3594  3.759569E-05  4.400000E+01
   10.4531  0.000000E+00  4.400000E+01
   10.5469  7.254170E-04  4.400087E+01
   10.6406  2.442487E+00  4.699093E+01
   10.7344  8.099422E-01  4.800000E+01
   10.8281  0.000000E+00  4.800000E+01
   10.9219  0.000000E+00  4.800000E+01
   11.0156  0.000000E+00  4.800000E+01
   11.1094  5.822107E-01  4.877691E+01
   11.2031  5.297003E+00  5.596513E+01
   11.2969  2.526758E-02  5.600000E+01
   11.3906  0.000000E+00  5.600000E+01
   11.4844  1.495351E-03  5.600213E+01
   11.5781  3.969824E+00  6.175601E+01
   11.6719  1.523434E+00  6.399998E+01
   11.7656  1.371567E-05  6.400000E+01
   11.8594  0.000000E+00  6.400000E+01
   11.9531  4.562875E-01  6.470488E+01

g(r)  :Ti      Ti      

        r      g(r)         n(r)

    4.1719  0.000000E+00  0.000000E+00
    4.2656  0.000000E+00  0.000000E+00
    4.3594  2.964909E+00  6.092379E-01
    4.4531  1.822453E+00  1.000000E+00
    4.5469  0.000000E+00  1.000000E+00
    4.6406  0.000000E+00  1.000000E+00
    4.7344  0.000000E+00  1.000000E+00
    4.8281  0.000000E+00  1.000000E+00
    4.9219  5.463390E-01  1.143102E+00
    5.0156  1.049697E+01  3.998306E+00
    5.1094  6.000058E-03  4.000000E+00
    5.2031  0.000000E+00  4.000000E+00
    5.2969  0.000000E+00  4.000000E+00
    5.3906  0.000000E+00  4.000000E+00
    5.4844  4.004272E+00  5.302263E+00
    5.5781  5.046280E+00  6.999992E+00
    5.6719  2.213183E-05  7.000000E+00
    5.7656  0.000000E+00  7.000000E+00
    5.8594  0.000000E+00  7.000000E+00
    5.9531  3.063194E+00  8.173772E+00
    6.0469  1.473629E+01  1.399975E+01
    6.1406  6.042225E-04  1.400000E+01
    6.2344  0.000000E+00  1.400000E+01
    6.3281  0.000000E+00  1.400000E+01
    6.4219  0.000000E+00  1.400000E+01
    6.5156  0.000000E+00  1.400000E+01
    6.6094  0.000000E+00  1.400000E+01
    6.7031  0.000000E+00  1.400000E+01
    6.7969  0.000000E+00  1.400000E+01
    6.8906  0.000000E+00  1.400000E+01
    6.9844  0.000000E+00  1.400000E+01
    7.0781  0.000000E+00  1.400000E+01
    7.1719  0.000000E+00  1.400000E+01
    7.2656  0.000000E+00  1.400000E+01
    7.3594  0.000000E+00  1.400000E+01
    7.4531  0.000000E+00  1.400000E+01
    7.5469  0.000000E+00  1.400000E+01
    7.6406  0.000000E+00  1.400000E+01
    7.7344  0.000000E+00  1.400000E+01
    7.8281  0.000000E+00  1.400000E+01
    7.9219  0.000000E+00  1.400000E+01
    8.0156  0.000000E+00  1.400000E+01
    8.1094  0.000000E+00  1.400000E+01
    8.2031  0.000000E+00  1.400000E+01
    8.2969  0.000000E+00  1.400000E+01
    8.3906  4.358777E-03  1.400332E+01
    8.4844  1.291261E+01  2.405337E+01
    8.5781  2.446716E+00  2.600000E+01
    8.6719  0.000000E+00  2.600000E+01
    8.7656  0.000000E+00  2.600000E+01
    8.8594  0.000000E+00  2.600000E+01
    8.9531  0.000000E+00  2.600000E+01
    9.0469  0.000000E+00  2.600000E+01
    9.1406  8.521674E-06  2.600001E+01
    9.2344  1.558481E+00  2.743692E+01
    9.3281  1.661416E+00  2.900000E+01
    9.4219  0.000000E+00  2.900000E+01
    9.5156  1.103309E+00  3.008015E+01
    9.6094  4.926649E+00  3.499891E+01
    9.7031  1.066284E-03  3.500000E+01
    9.7969  2.788821E-01  3.528941E+01
    9.8906  2.560010E+00  3.799712E+01
    9.9844  2.671205E-03  3.800000E+01
   10.0781  2.619566E-01  3.828768E+01
   10.1719  2.422520E+00  4.099776E+01
   10.2656  1.966073E-03  4.100000E+01
   10.3594  2.444275E+00  4.383616E+01
   10.4531  9.447484E+00  5.499764E+01
   10.5469  1.971427E-03  5.500001E+01
   10.6406  1.089618E+00  5.633390E+01
   10.7344  1.337302E+00  5.799998E+01
   10.8281  1.214510E-05  5.800000E+01
   10.9219  0.000000E+00  5.800000E+01
   11.0156  0.000000E+00  5.800000E+01
   11.1094  0.000000E+00  5.800000E+01
   11.2031  0.000000E+00  5.800000E+01
   11.2969  0.000000E+00  5.800000E+01
   11.3906  0.000000E+00  5.800000E+01
   11.4844  0.000000E+00  5.800000E+01
   11.5781  0.000000E+00  5.800000E+01
   11.6719  0.000000E+00  5.800000E+01
   11.7656  0.000000E+00  5.800000E+01
   11.8594  0.000000E+00  5.800000E+01
   11.9531  1.728451E-01  5.826701E+01

 time elapsed since job start =       34000.122 seconds

